ITEM: TIMESTEP
0
ITEM: NUMBER OF ATOMS
22500
ITEM: BOX BOUNDS pp pp pp
0.0000000000000000e+00 3.0000000000000000e+01
0.0000000000000000e+00 3.0000000000000000e+01
0.0000000000000000e+00 2.0000000000000001e-01
ITEM: ATOMS id type x y z c_density c_peratom[1] c_peratom[2]
1 1 0 0 0 0.999903 -0.00171183 -0.00171183
2 1 0.2 0 0 0.999903 -0.00171174 -0.00171174
3 1 0.4 0 0 0.999903 -0.00171163 -0.00171164
151 1 0 0.2 0 0.999903 -0.00171187 -0.00171181
152 1 0.2 0.2 0 0.999903 -0.00171173 -0.00171179
153 1 0.4 0.2 0 0.999903 -0.00171172 -0.0017118
301 1 0 0.4 0 0.999903 -0.0017117 -0.0017118
302 1 0.2 0.4 0 0.999903 -0.0017118 -0.00171188
303 1 0.4 0.4 0 0.999903 -0.00171169 -0.00171164
4 1 0.6 0 0 0.999903 -0.00362353 -0.00171183
5 1 0.8 0 0 0.999903 -0.00362337 -0.00171174
154 1 0.6 0.2 0 0.999903 -0.00362348 -0.00171183
155 1 0.8 0.2 0 0.999903 -0.00362338 -0.00171173
304 1 0.6 0.4 0 0.999903 -0.00362346 -0.00171167
305 1 0.8 0.4 0 0.999903 -0.00362356 -0.00171181
6 1 1 0 0 0.999903 -0.00362337 -0.0017117
7 1 1.2 0 0 0.999903 -0.00171177 -0.00171183
8 1 1.4 0 0 0.999903 -0.00362341 -0.00171174
156 1 1 0.2 0 0.999903 -0.00362355 -0.00171183
157 1 1.2 0.2 0 0.999903 -0.00171184 -0.00171182
158 1 1.4 0.2 0 0.999903 -0.00362336 -0.00171175
306 1 1 0.4 0 0.999903 -0.0036234 -0.00171173
307 1 1.2 0.4 0 0.999903 -0.00171175 -0.0017118
308 1 1.4 0.4 0 0.999903 -0.00362355 -0.00171172
9 1 1.6 0 0 0.999903 -0.00362344 -0.00171174
10 1 1.8 0 0 0.999903 -0.00362355 -0.00171173
159 1 1.6 0.2 0 0.999903 -0.00362342 -0.00171178
160 1 1.8 0.2 0 0.999903 -0.00362345 -0.00171169
309 1 1.6 0.4 0 0.999903 -0.00362349 -0.00171178
310 1 1.8 0.4 0 0.999903 -0.00362344 -0.00171183
11 1 2 0 0 0.999903 -0.00171169 -0.0017117
12 1 2.2 0 0 0.999903 -0.0017117 -0.00171181
13 1 2.4 0 0 0.999903 -0.00171171 -0.00171159
161 1 2 0.2 0 0.999903 -0.0017117 -0.00171168
162 1 2.2 0.2 0 0.999903 -0.00171177 -0.00171175
163 1 2.4 0.2 0 0.999903 -0.0017119 -0.0017118
311 1 2 0.4 0 0.999903 -0.00171187 -0.00171172
312 1 2.2 0.4 0 0.999903 -0.00171176 -0.00171183
313 1 2.4 0.4 0 0.999903 -0.00171174 -0.0017118
14 1 2.6 0 0 0.999903 -0.00362355 -0.00171175
15 1 2.8 0 0 0.999903 -0.00171187 -0.00171181
164 1 2.6 0.2 0 0.999903 -0.00362348 -0.0017117
165 1 2.8 0.2 0 0.999903 -0.00171177 -0.00171176
314 1 2.6 0.4 0 0.999903 -0.0036235 -0.00171187
315 1 2.8 0.4 0 0.999903 -0.00171178 -0.00171181
16 1 3 0 0 0.999903 -0.00171187 -0.00171186
17 1 3.2 0 0 0.999903 0.00019989 -0.0017118
166 1 3 0.2 0 0.999903 -0.00171176 -0.00171171
167 1 3.2 0.2 0 0.999903 0.000199943 -0.00171171
316 1 3 0.4 0 0.999903 -0.00171176 -0.00171177
317 1 3.2 0.4 0 0.999903 0.000199974 -0.0017117
18 1 3.4 0 0 0.999903 -0.00171175 -0.00171169
19 1 3.6 0 0 0.999903 -0.00171175 -0.0017118
20 1 3.8 0 0 0.999903 -0.00362343 -0.00171175
168 1 3.4 0.2 0 0.999903 -0.00171175 -0.00171179
169 1 3.6 0.2 0 0.999903 -0.00171179 -0.00171173
170 1 3.8 0.2 0 0.999903 -0.00362347 -0.00171184
318 1 3.4 0.4 0 0.999903 -0.00171184 -0.00171173
319 1 3.6 0.4 0 0.999903 -0.00171173 -0.00171178
320 1 3.8 0.4 0 0.999903 -0.00362338 -0.0017117
21 1 4 0 0 0.999903 -0.00171173 -0.00171167
22 1 4.2 0 0 0.999903 0.000199945 -0.00171177
171 1 4 0.2 0 0.999903 -0.0017117 -0.00171176
172 1 4.2 0.2 0 0.999903 0.000199998 -0.00171171
321 1 4 0.4 0 0.999903 -0.00171172 -0.00171177
322 1 4.2 0.4 0 0.999903 0.00019995 -0.00171183
23 1 4.4 0 0 0.999903 -0.00171177 -0.00171175
24 1 4.6 0 0 0.999903 -0.00171175 -0.00171178
25 1 4.8 0 0 0.999903 -0.00171173 -0.00171175
173 1 4.4 0.2 0 0.999903 -0.00171157 -0.00171168
174 1 4.6 0.2 0 0.999903 -0.0017116 -0.00171164
175 1 4.8 0.2 0 0.999903 -0.00171168 -0.00171168
323 1 4.4 0.4 0 0.999903 -0.00171179 -0.00171171
324 1 4.6 0.4 0 0.999903 -0.00171176 -0.00171177
325 1 4.8 0.4 0 0.999903 -0.00171173 -0.00171168
26 1 5 0 0 0.999903 -0.00171177 -0.00171176
27 1 5.2 0 0 0.999903 0.000199988 -0.0017118
176 1 5 0.2 0 0.999903 -0.00171165 -0.00171174
177 1 5.2 0.2 0 0.999903 0.000199973 -0.00171179
326 1 5 0.4 0 0.999903 -0.00171167 -0.00171174
327 1 5.2 0.4 0 0.999903 0.000199927 -0.00171172
28 1 5.4 0 0 0.999903 0.000200026 -0.00171176
29 1 5.6 0 0 0.999903 0.000199836 -0.00171173
30 1 5.8 0 0 0.999903 -0.00171179 -0.00171178
178 1 5.4 0.2 0 0.999903 0.000199965 -0.00171181
179 1 5.6 0.2 0 0.999903 0.000200007 -0.00171168
180 1 5.8 0.2 0 0.999903 -0.00171176 -0.0017118
328 1 5.4 0.4 0 0.999903 0.000200078 -0.00171166
329 1 5.6 0.4 0 0.999903 0.000199904 -0.0017118
330 1 5.8 0.4 0 0.999903 -0.00171176 -0.00171182
31 1 6 0 0 0.999903 -0.00171176 -0.00171177
32 1 6.2 0 0 0.999903 0.00019993 -0.00171171
181 1 6 0.2 0 0.999903 -0.00171179 -0.00171161
182 1 6.2 0.2 0 0.999903 0.000199858 -0.00171186
331 1 6 0.4 0 0.999903 -0.00171177 -0.00171178
332 1 6.2 0.4 0 0.999903 0.000199905 -0.0017118
33 1 6.4 0 0 0.999903 0.000199942 -0.00171175
34 1 6.6 0 0 0.999903 0.000199988 -0.00171181
183 1 6.4 0.2 0 0.999903 0.000199889 -0.00171174
184 1 6.6 0.2 0 0.999903 0.000199989 -0.00171173
333 1 6.4 0.4 0 0.999903 0.000199891 -0.00171183
334 1 6.6 0.4 0 0.999903 0.000199877 -0.00171175
35 1 6.8 0 0 0.999903 -0.00171163 -0.00171178
36 1 7 0 0 0.999903 -0.00171169 -0.00171163
37 1 7.2 0 0 0.999903 0.000200061 -0.00171169
185 1 6.8 0.2 0 0.999903 -0.00171178 -0.00171174
186 1 7 0.2 0 0.999903 -0.00171176 -0.00171172
187 1 7.2 0.2 0 0.999903 0.000199952 -0.00171188
335 1 6.8 0.4 0 0.999903 -0.00171173 -0.00171172
336 1 7 0.4 0 0.999903 -0.00171182 -0.00171174
337 1 7.2 0.4 0 0.999903 0.00019991 -0.00171181
38 1 7.4 0 0 0.999903 -0.00171186 -0.00171179
39 1 7.6 0 0 0.999903 0.000199883 -0.00171174
188 1 7.4 0.2 0 0.999903 -0.00171181 -0.00171179
189 1 7.6 0.2 0 0.999903 0.000199956 -0.00171181
338 1 7.4 0.4 0 0.999903 -0.00171178 -0.00171171
339 1 7.6 0.4 0 0.999903 0.000199865 -0.00171172
40 1 7.8 0 0 0.999903 -0.00171184 -0.00171177
41 1 8 0 0 0.999903 -0.00171183 -0.00171178
42 1 8.2 0 0 0.999903 -0.00171168 -0.00171173
190 1 7.8 0.2 0 0.999903 -0.00171178 -0.0017118
191 1 8 0.2 0 0.999903 -0.00171174 -0.0017117
192 1 8.2 0.2 0 0.999903 -0.00171172 -0.0017117
340 1 7.8 0.4 0 0.999903 -0.00171169 -0.00171182
341 1 8 0.4 0 0.999903 -0.00171174 -0.00171171
342 1 8.2 0.4 0 0.999903 -0.00171168 -0.00171165
43 1 8.4 0 0 0.999903 -0.00171169 -0.00171168
44 1 8.6 0 0 0.999903 -0.00171174 -0.00171172
193 1 8.4 0.2 0 0.999903 -0.00171179 -0.00171179
194 1 8.6 0.2 0 0.999903 -0.00171179 -0.00171167
343 1 8.4 0.4 0 0.999903 -0.00171172 -0.00171185
344 1 8.6 0.4 0 0.999903 -0.00171174 -0.00171174
45 1 8.8 0 0 0.999903 -0.00362359 -0.00171179
46 1 9 0 0 0.999903 -0.00171175 -0.00171173
195 1 8.8 0.2 0 0.999903 -0.00362343 -0.00171176
196 1 9 0.2 0 0.999903 -0.00171177 -0.00171179
345 1 8.8 0.4 0 0.999903 -0.0036235 -0.00171173
346 1 9 0.4 0 0.999903 -0.0017118 -0.00171171
47 1 9.2 0 0 0.999903 -0.00171177 -0.00171174
48 1 9.4 0 0 0.999903 -0.00362346 -0.00171175
49 1 9.6 0 0 0.999903 -0.00171171 -0.00171173
197 1 9.2 0.2 0 0.999903 -0.0017118 -0.00171174
198 1 9.4 0.2 0 0.999903 -0.00362351 -0.00171172
199 1 9.6 0.2 0 0.999903 -0.00171188 -0.00171179
347 1 9.2 0.4 0 0.999903 -0.00171185 -0.00171171
348 1 9.4 0.4 0 0.999903 -0.00362352 -0.00171179
349 1 9.6 0.4 0 0.999903 -0.00171167 -0.00171174
50 1 9.8 0 0 0.999903 -0.00362343 -0.00171173
51 1 10 0 0 0.999903 -0.00171167 -0.00171175
200 1 9.8 0.2 0 0.999903 -0.00362334 -0.00171173
201 1 10 0.2 0 0.999903 -0.00171183 -0.00171176
350 1 9.8 0.4 0 0.999903 -0.00362349 -0.00171174
351 1 10 0.4 0 0.999903 -0.00171177 -0.00171187
52 1 10.2 0 0 0.999903 -0.00171171 -0.00171181
53 1 10.4 0 0 0.999903 -0.00171169 -0.00171171
54 1 10.6 0 0 0.999903 -0.00171172 -0.00171161
202 1 10.2 0.2 0 0.999903 -0.00171177 -0.00171168
203 1 10.4 0.2 0 0.999903 -0.00171175 -0.0017117
204 1 10.6 0.2 0 0.999903 -0.00171167 -0.00171174
352 1 10.2 0.4 0 0.999903 -0.00171182 -0.00171174
353 1 10.4 0.4 0 0.999903 -0.00171185 -0.0017118
354 1 10.6 0.4 0 0.999903 -0.00171163 -0.00171165
55 1 10.8 0 0 0.999903 -0.00362347 -0.00171174
56 1 11 0 0 0.999903 -0.00171176 -0.00171176
205 1 10.8 0.2 0 0.999903 -0.00362342 -0.00171162
206 1 11 0.2 0 0.999903 -0.0017117 -0.00171179
355 1 10.8 0.4 0 0.999903 -0.00362354 -0.00171168
356 1 11 0.4 0 0.999903 -0.00171179 -0.00171168
57 1 11.2 0 0 0.999903 -0.00171177 -0.00171176
58 1 11.4 0 0 0.999903 -0.00171183 -0.00171182
59 1 11.6 0 0 0.999903 -0.00171181 -0.00171173
207 1 11.2 0.2 0 0.999903 -0.00171173 -0.00171174
208 1 11.4 0.2 0 0.999903 -0.00171171 -0.00171182
209 1 11.6 0.2 0 0.999903 -0.00171171 -0.00171179
357 1 11.2 0.4 0 0.999903 -0.00171185 -0.0017118
358 1 11.4 0.4 0 0.999903 -0.00171184 -0.00171177
359 1 11.6 0.4 0 0.999903 -0.00171179 -0.00171175
60 1 11.8 0 0 0.999903 -0.00362341 -0.00171174
61 1 12 0 0 0.999903 -0.00171177 -0.00171177
210 1 11.8 0.2 0 0.999903 -0.00362348 -0.00171183
211 1 12 0.2 0 0.999903 -0.00171187 -0.00171179
360 1 11.8 0.4 0 0.999903 -0.00362354 -0.00171167
361 1 12 0.4 0 0.999903 -0.00171166 -0.00171172
62 1 12.2 0 0 0.999903 -0.00171179 -0.00171172
63 1 12.4 0 0 0.999903 -0.00171177 -0.00171175
212 1 12.2 0.2 0 0.999903 -0.00171187 -0.00171187
213 1 12.4 0.2 0 0.999903 -0.00171177 -0.00171168
362 1 12.2 0.4 0 0.999903 -0.0017118 -0.00171171
363 1 12.4 0.4 0 0.999903 -0.00171178 -0.00171177
64 1 12.6 0 0 0.999903 -0.00171167 -0.00171182
65 1 12.8 0 0 0.999903 -0.00362348 -0.00171186
66 1 13 0 0 0.999903 -0.00171172 -0.00171177
214 1 12.6 0.2 0 0.999903 -0.00171174 -0.00171177
215 1 12.8 0.2 0 0.999903 -0.00362343 -0.00171182
216 1 13 0.2 0 0.999903 -0.00171177 -0.0017118
364 1 12.6 0.4 0 0.999903 -0.00171178 -0.00171179
365 1 12.8 0.4 0 0.999903 -0.00362349 -0.00171178
366 1 13 0.4 0 0.999903 -0.00171181 -0.00171184
67 1 13.2 0 0 0.999903 -0.0017118 -0.00171176
68 1 13.4 0 0 0.999903 -0.00171175 -0.00171174
217 1 13.2 0.2 0 0.999903 -0.00171162 -0.00171166
218 1 13.4 0.2 0 0.999903 -0.00171178 -0.00171181
367 1 13.2 0.4 0 0.999903 -0.00171179 -0.00171167
368 1 13.4 0.4 0 0.999903 -0.00171161 -0.00171177
69 1 13.6 0 0 0.999903 -0.0017118 -0.00171184
70 1 13.8 0 0 0.999903 -0.00362358 -0.00171178
71 1 14 0 0 0.999903 -0.00171168 -0.00171168
219 1 13.6 0.2 0 0.999903 -0.00171175 -0.00171169
220 1 13.8 0.2 0 0.999903 -0.00362339 -0.00171176
221 1 14 0.2 0 0.999903 -0.00171176 -0.0017117
369 1 13.6 0.4 0 0.999903 -0.00171176 -0.00171185
370 1 13.8 0.4 0 0.999903 -0.00362341 -0.00171178
371 1 14 0.4 0 0.999903 -0.00171169 -0.00171173
72 1 14.2 0 0 0.999903 -0.00171173 -0.00171174
73 1 14.4 0 0 0.999903 -0.00171175 -0.00171175
222 1 14.2 0.2 0 0.999903 -0.00171175 -0.0017117
223 1 14.4 0.2 0 0.999903 -0.00171175 -0.00171176
372 1 14.2 0.4 0 0.999903 -0.00171178 -0.00171168
373 1 14.4 0.4 0 0.999903 -0.00171173 -0.00171174
74 1 14.6 0 0 0.999903 -0.00171187 -0.00171181
75 1 14.8 0 0 0.999903 -0.00362343 -0.00171171
224 1 14.6 0.2 0 0.999903 -0.00171175 -0.00171174
225 1 14.8 0.2 0 0.999903 -0.0036234 -0.00171174
374 1 14.6 0.4 0 0.999903 -0.00171167 -0.0017117
375 1 14.8 0.4 0 0.999903 -0.00362348 -0.00171184
76 1 15 0 0 0.999903 -0.00171166 -0.00171162
77 1 15.2 0 0 0.999903 -0.00171179 -0.00171168
78 1 15.4 0 0 0.999903 0.000200019 -0.0017117
226 1 15 0.2 0 0.999903 -0.00171185 -0.00171176
227 1 15.2 0.2 0 0.999903 -0.00171175 -0.00171179
228 1 15.4 0.2 0 0.999903 0.000200034 -0.00171164
376 1 15 0.4 0 0.999903 -0.00171176 -0.00171175
377 1 15.2 0.4 0 0.999903 -0.00171175 -0.0017117
378 1 15.4 0.4 0 0.999903 0.000199977 -0.0017117
79 1 15.6 0 0 0.999903 -0.00362347 -0.00171178
80 1 15.8 0 0 0.999903 -0.00362341 -0.00171167
229 1 15.6 0.2 0 0.999903 -0.00362342 -0.00171177
230 1 15.8 0.2 0 0.999903 -0.0036234 -0.00171163
379 1 15.6 0.4 0 0.999903 -0.00362344 -0.00171181
380 1 15.8 0.4 0 0.999903 -0.00362349 -0.00171171
81 1 16 0 0 0.999903 -0.00171172 -0.0017118
82 1 16.2 0 0 0.999903 -0.00171165 -0.00171183
83 1 16.4 0 0 0.999903 -0.00171172 -0.00171172
231 1 16 0.2 0 0.999903 -0.00171171 -0.00171177
232 1 16.2 0.2 0 0.999903 -0.00171168 -0.00171175
233 1 16.4 0.2 0 0.999903 -0.00171174 -0.00171176
381 1 16 0.4 0 0.999903 -0.00171166 -0.00171169
382 1 16.2 0.4 0 0.999903 -0.00171175 -0.00171169
383 1 16.4 0.4 0 0.999903 -0.00171162 -0.00171164
84 1 16.6 0 0 0.999903 -0.00362331 -0.00171168
85 1 16.8 0 0 0.999903 -0.00362337 -0.00171174
234 1 16.6 0.2 0 0.999903 -0.00362356 -0.00171181
235 1 16.8 0.2 0 0.999903 -0.00362347 -0.00171174
384 1 16.6 0.4 0 0.999903 -0.00362342 -0.0017117
385 1 16.8 0.4 0 0.999903 -0.00362344 -0.00171177
86 1 17 0 0 0.999903 -0.00362333 -0.00171168
87 1 17.2 0 0 0.999903 -0.00171186 -0.00171178
88 1 17.4 0 0 0.999903 -0.00171179 -0.00171167
236 1 17 0.2 0 0.999903 -0.00362341 -0.00171178
237 1 17.2 0.2 0 0.999903 -0.00171171 -0.00171175
238 1 17.4 0.2 0 0.999903 -0.00171176 -0.00171175
386 1 17 0.4 0 0.999903 -0.00362341 -0.00171168
387 1 17.2 0.4 0 0.999903 -0.00171174 -0.00171173
388 1 17.4 0.4 0 0.999903 -0.00171171 -0.00171168
89 1 17.6 0 0 0.999903 -0.00362353 -0.00171175
90 1 17.8 0 0 0.999903 -0.00362354 -0.00171173
239 1 17.6 0.2 0 0.999903 -0.00362346 -0.00171171
240 1 17.8 0.2 0 0.999903 -0.00362342 -0.00171168
389 1 17.6 0.4 0 0.999903 -0.00362354 -0.00171171
390 1 17.8 0.4 0 0.999903 -0.00362342 -0.00171166
91 1 18 0 0 0.999903 -0.00362343 -0.00171172
92 1 18.2 0 0 0.999903 -0.00171181 -0.00171184
241 1 18 0.2 0 0.999903 -0.0036234 -0.0017118
242 1 18.2 0.2 0 0.999903 -0.00171176 -0.00171178
391 1 18 0.4 0 0.999903 -0.0036235 -0.0017117
392 1 18.2 0.4 0 0.999903 -0.00171168 -0.00171169
93 1 18.4 0 0 0.999903 -0.0036235 -0.00171174
94 1 18.6 0 0 0.999903 -0.0036235 -0.00171187
95 1 18.8 0 0 0.999903 -0.00362335 -0.00171153
243 1 18.4 0.2 0 0.999903 -0.0036235 -0.0017118
244 1 18.6 0.2 0 0.999903 -0.00362351 -0.00171169
245 1 18.8 0.2 0 0.999903 -0.00362341 -0.00171173
393 1 18.4 0.4 0 0.999903 -0.0036234 -0.00171174
394 1 18.6 0.4 0 0.999903 -0.0036234 -0.00171167
395 1 18.8 0.4 0 0.999903 -0.00362345 -0.00171174
96 1 19 0 0 0.999903 -0.00362359 -0.0017118
97 1 19.2 0 0 0.999903 -0.00171188 -0.0017118
246 1 19 0.2 0 0.999903 -0.00362347 -0.00171169
247 1 19.2 0.2 0 0.999903 -0.00171173 -0.00171171
396 1 19 0.4 0 0.999903 -0.00362348 -0.00171187
397 1 19.2 0.4 0 0.999903 -0.00171176 -0.00171184
98 1 19.4 0 0 0.999903 -0.00362342 -0.00171163
99 1 19.6 0 0 0.999903 -0.0036235 -0.00171174
100 1 19.8 0 0 0.999903 -0.00362353 -0.00171181
248 1 19.4 0.2 0 0.999903 -0.00362356 -0.0017119
249 1 19.6 0.2 0 0.999903 -0.00362351 -0.00171183
250 1 19.8 0.2 0 0.999903 -0.0036236 -0.00171185
398 1 19.4 0.4 0 0.999903 -0.00362347 -0.00171181
399 1 19.6 0.4 0 0.999903 -0.00362342 -0.0017118
400 1 19.8 0.4 0 0.999903 -0.00362357 -0.00171178
101 1 20 0 0 0.999903 -0.00171185 -0.00171171
102 1 20.2 0 0 0.999903 -0.00171185 -0.00171178
251 1 20 0.2 0 0.999903 -0.00171177 -0.0017118
252 1 20.2 0.2 0 0.999903 -0.00171184 -0.00171174
401 1 20 0.4 0 0.999903 -0.00171171 -0.00171174
402 1 20.2 0.4 0 0.999903 -0.00171179 -0.00171179
103 1 20.4 0 0 0.999903 -0.00362358 -0.00171181
104 1 20.6 0 0 0.999903 -0.00362349 -0.00171181
105 1 20.8 0 0 0.999903 -0.00362346 -0.00171175
253 1 20.4 0.2 0 0.999903 -0.00362349 -0.00171189
254 1 20.6 0.2 0 0.999903 -0.00362354 -0.0017117
255 1 20.8 0.2 0 0.999903 -0.00362341 -0.00171173
403 1 20.4 0.4 0 0.999903 -0.00362356 -0.00171184
404 1 20.6 0.4 0 0.999903 -0.00362344 -0.00171186
405 1 20.8 0.4 0 0.999903 -0.00362349 -0.00171179
106 1 21 0 0 0.999903 -0.00171179 -0.00171179
107 1 21.2 0 0 0.999903 -0.00171169 -0.00171182
256 1 21 0.2 0 0.999903 -0.00171189 -0.00171182
257 1 21.2 0.2 0 0.999903 -0.00171171 -0.00171174
406 1 21 0.4 0 0.999903 -0.00171174 -0.00171172
407 1 21.2 0.4 0 0.999903 -0.00171182 -0.00171171
108 1 21.4 0 0 0.999903 -0.00362338 -0.0017117
109 1 21.6 0 0 0.999903 -0.00362343 -0.0017117
258 1 21.4 0.2 0 0.999903 -0.00362336 -0.00171169
259 1 21.6 0.2 0 0.999903 -0.00362344 -0.00171179
408 1 21.4 0.4 0 0.999903 -0.00362348 -0.00171176
409 1 21.6 0.4 0 0.999903 -0.00362352 -0.0017118
110 1 21.8 0 0 0.999903 -0.00362339 -0.00171177
111 1 22 0 0 0.999903 -0.00171168 -0.0017117
112 1 22.2 0 0 0.999903 -0.00171187 -0.00171179
260 1 21.8 0.2 0 0.999903 -0.00362349 -0.0017118
261 1 22 0.2 0 0.999903 -0.00171173 -0.00171164
262 1 22.2 0.2 0 0.999903 -0.0017117 -0.00171174
410 1 21.8 0.4 0 0.999903 -0.00362351 -0.00171178
411 1 22 0.4 0 0.999903 -0.00171183 -0.0017118
412 1 22.2 0.4 0 0.999903 -0.00171183 -0.00171175
113 1 22.4 0 0 0.999903 -0.00362352 -0.00171187
114 1 22.6 0 0 0.999903 -0.00362351 -0.00171171
263 1 22.4 0.2 0 0.999903 -0.00362336 -0.00171184
264 1 22.6 0.2 0 0.999903 -0.00362337 -0.00171169
413 1 22.4 0.4 0 0.999903 -0.00362343 -0.00171185
414 1 22.6 0.4 0 0.999903 -0.0036235 -0.00171173
115 1 22.8 0 0 0.999903 -0.00362348 -0.0017118
116 1 23 0 0 0.999903 -0.00171182 -0.00171173
117 1 23.2 0 0 0.999903 -0.00171173 -0.00171163
265 1 22.8 0.2 0 0.999903 -0.00362351 -0.00171181
266 1 23 0.2 0 0.999903 -0.00171166 -0.00171177
267 1 23.2 0.2 0 0.999903 -0.00171173 -0.00171173
415 1 22.8 0.4 0 0.999903 -0.00362332 -0.00171171
416 1 23 0.4 0 0.999903 -0.00171171 -0.00171172
417 1 23.2 0.4 0 0.999903 -0.00171174 -0.00171178
118 1 23.4 0 0 0.999903 -0.00362354 -0.00171171
119 1 23.6 0 0 0.999903 -0.00362335 -0.00171169
268 1 23.4 0.2 0 0.999903 -0.00362334 -0.00171163
269 1 23.6 0.2 0 0.999903 -0.00362345 -0.00171178
418 1 23.4 0.4 0 0.999903 -0.00362344 -0.00171168
419 1 23.6 0.4 0 0.999903 -0.00362354 -0.00171182
120 1 23.8 0 0 0.999903 -0.00362353 -0.0017118
121 1 24 0 0 0.999903 -0.0017118 -0.00171177
270 1 23.8 0.2 0 0.999903 -0.00362336 -0.00171173
271 1 24 0.2 0 0.999903 -0.00171171 -0.00171177
420 1 23.8 0.4 0 0.999903 -0.00362343 -0.00171179
421 1 24 0.4 0 0.999903 -0.00171171 -0.00171169
122 1 24.2 0 0 0.999903 -0.0017118 -0.00171172
123 1 24.4 0 0 0.999903 -0.0036235 -0.00171178
124 1 24.6 0 0 0.999903 -0.00362345 -0.00171176
272 1 24.2 0.2 0 0.999903 -0.0017118 -0.0017118
273 1 24.4 0.2 0 0.999903 -0.00362351 -0.00171181
274 1 24.6 0.2 0 0.999903 -0.00362349 -0.00171168
422 1 24.2 0.4 0 0.999903 -0.00171181 -0.00171173
423 1 24.4 0.4 0 0.999903 -0.0036235 -0.00171178
424 1 24.6 0.4 0 0.999903 -0.00362349 -0.00171173
125 1 24.8 0 0 0.999903 -0.00362336 -0.00171166
126 1 25 0 0 0.999903 -0.00171175 -0.00171167
275 1 24.8 0.2 0 0.999903 -0.00362334 -0.00171173
276 1 25 0.2 0 0.999903 -0.00171174 -0.00171175
425 1 24.8 0.4 0 0.999903 -0.00362347 -0.00171178
426 1 25 0.4 0 0.999903 -0.00171175 -0.00171181
127 1 25.2 0 0 0.999903 -0.00171166 -0.0017116
128 1 25.4 0 0 0.999903 -0.00362342 -0.00171182
129 1 25.6 0 0 0.999903 -0.00362347 -0.00171171
277 1 25.2 0.2 0 0.999903 -0.00171185 -0.00171173
278 1 25.4 0.2 0 0.999903 -0.00362343 -0.00171182
279 1 25.6 0.2 0 0.999903 -0.00362344 -0.00171163
427 1 25.2 0.4 0 0.999903 -0.00171179 -0.00171173
428 1 25.4 0.4 0 0.999903 -0.00362344 -0.00171175
429 1 25.6 0.4 0 0.999903 -0.00362351 -0.0017119
130 1 25.8 0 0 0.999903 -0.00362349 -0.00171168
131 1 26 0 0 0.999903 -0.00171179 -0.00171174
280 1 25.8 0.2 0 0.999903 -0.00362345 -0.00171174
281 1 26 0.2 0 0.999903 -0.00171175 -0.00171184
430 1 25.8 0.4 0 0.999903 -0.00362336 -0.00171164
431 1 26 0.4 0 0.999903 -0.00171175 -0.0017117
132 1 26.2 0 0 0.999903 -0.0017117 -0.00171164
133 1 26.4 0 0 0.999903 -0.00362338 -0.0017117
134 1 26.6 0 0 0.999903 -0.00362345 -0.00171182
282 1 26.2 0.2 0 0.999903 -0.00171173 -0.00171163
283 1 26.4 0.2 0 0.999903 -0.00362347 -0.00171178
284 1 26.6 0.2 0 0.999903 -0.00362347 -0.00171179
432 1 26.2 0.4 0 0.999903 -0.00171179 -0.00171173
433 1 26.4 0.4 0 0.999903 -0.00362349 -0.00171181
434 1 26.6 0.4 0 0.999903 -0.0036235 -0.00171166
135 1 26.8 0 0 0.999903 -0.00362347 -0.00171177
136 1 27 0 0 0.999903 -0.00171174 -0.0017118
285 1 26.8 0.2 0 0.999903 -0.00362355 -0.00171172
286 1 27 0.2 0 0.999903 -0.00171178 -0.0017118
435 1 26.8 0.4 0 0.999903 -0.00362335 -0.00171178
436 1 27 0.4 0 0.999903 -0.00171175 -0.0017117
137 1 27.2 0 0 0.999903 -0.0017117 -0.00171173
138 1 27.4 0 0 0.999903 -0.00362346 -0.00171169
287 1 27.2 0.2 0 0.999903 -0.00171185 -0.00171173
288 1 27.4 0.2 0 0.999903 -0.00362343 -0.00171176
437 1 27.2 0.4 0 0.999903 -0.00171178 -0.00171178
438 1 27.4 0.4 0 0.999903 -0.0036234 -0.00171178
139 1 27.6 0 0 0.999903 -0.00362346 -0.0017117
140 1 27.8 0 0 0.999903 -0.0036234 -0.00171174
141 1 28 0 0 0.999903 -0.00171174 -0.00171177
289 1 27.6 0.2 0 0.999903 -0.00362352 -0.00171169
290 1 27.8 0.2 0 0.999903 -0.00362345 -0.00171173
291 1 28 0.2 0 0.999903 -0.00171172 -0.00171172
439 1 27.6 0.4 0 0.999903 -0.00362348 -0.00171174
440 1 27.8 0.4 0 0.999903 -0.00362351 -0.0017118
441 1 28 0.4 0 0.999903 -0.00171174 -0.00171171
142 1 28.2 0 0 0.999903 -0.0017118 -0.00171182
143 1 28.4 0 0 0.999903 -0.00362357 -0.00171184
292 1 28.2 0.2 0 0.999903 -0.00171184 -0.00171165
293 1 28.4 0.2 0 0.999903 -0.00362352 -0.00171179
442 1 28.2 0.4 0 0.999903 -0.00171181 -0.00171182
443 1 28.4 0.4 0 0.999903 -0.00362344 -0.00171176
144 1 28.6 0 0 0.999903 -0.00362346 -0.00171168
145 1 28.8 0 0 0.999903 -0.00362339 -0.00171171
146 1 29 0 0 0.999903 -0.00171168 -0.00171173
294 1 28.6 0.2 0 0.999903 -0.00362342 -0.00171181
295 1 28.8 0.2 0 0.999903 -0.00362342 -0.00171175
296 1 29 0.2 0 0.999903 -0.00171174 -0.00171173
444 1 28.6 0.4 0 0.999903 -0.00362347 -0.00171166
445 1 28.8 0.4 0 0.999903 -0.00362352 -0.00171177
446 1 29 0.4 0 0.999903 -0.00171169 -0.00171162
147 1 29.2 0 0 0.999903 -0.00171178 -0.0017118
148 1 29.4 0 0 0.999903 -0.00171182 -0.00171179
297 1 29.2 0.2 0 0.999903 -0.00171173 -0.00171185
298 1 29.4 0.2 0 0.999903 -0.0017118 -0.0017118
447 1 29.2 0.4 0 0.999903 -0.00171191 -0.00171176
448 1 29.4 0.4 0 0.999903 -0.00171168 -0.00171174
149 1 29.6 0 0 0.999903 -0.00171177 -0.00171188
150 1 29.8 0 0 0.999903 -0.00362354 -0.00171181
299 1 29.6 0.2 0 0.999903 -0.00171175 -0.00171175
300 1 29.8 0.2 0 0.999903 -0.0036235 -0.00171179
449 1 29.6 0.4 0 0.999903 -0.00171183 -0.00171177
450 1 29.8 0.4 0 0.999903 -0.00362349 -0.00171175
451 1 0 0.6 0 0.999903 -0.00171172 -0.00362348
452 1 0.2 0.6 0 0.999903 -0.00171172 -0.00362344
453 1 0.4 0.6 0 0.999903 -0.00171169 -0.00362341
601 1 0 0.8 0 0.999903 -0.00171171 -0.00362346
602 1 0.2 0.8 0 0.999903 -0.0017118 -0.00362364
603 1 0.4 0.8 0 0.999903 -0.0017117 -0.00362329
454 1 0.6 0.6 0 0.999903 -0.00362342 -0.00362347
455 1 0.8 0.6 0 0.999903 -0.00362348 -0.00362358
604 1 0.6 0.8 0 0.999903 -0.00362344 -0.00362348
605 1 0.8 0.8 0 0.999903 -0.00362344 -0.00362337
456 1 1 0.6 0 0.999903 -0.00362346 -0.00362346
457 1 1.2 0.6 0 0.999903 -0.00171174 -0.00362341
458 1 1.4 0.6 0 0.999903 -0.00362343 -0.00362335
606 1 1 0.8 0 0.999903 -0.00362353 -0.0036235
607 1 1.2 0.8 0 0.999903 -0.0017117 -0.00362331
608 1 1.4 0.8 0 0.999903 -0.00362354 -0.00362354
459 1 1.6 0.6 0 0.999903 -0.00362361 -0.00362344
460 1 1.8 0.6 0 0.999903 -0.0036235 -0.00362351
609 1 1.6 0.8 0 0.999903 -0.0036236 -0.00362346
610 1 1.8 0.8 0 0.999903 -0.00362354 -0.00362345
461 1 2 0.6 0 0.999903 -0.00171184 -0.00362348
462 1 2.2 0.6 0 0.999903 -0.00171173 -0.00362347
463 1 2.4 0.6 0 0.999903 -0.00171181 -0.00362353
611 1 2 0.8 0 0.999903 -0.00171193 -0.00362352
612 1 2.2 0.8 0 0.999903 -0.0017119 -0.00362357
613 1 2.4 0.8 0 0.999903 -0.00171185 -0.00362354
464 1 2.6 0.6 0 0.999903 -0.00362342 -0.00362343
465 1 2.8 0.6 0 0.999903 -0.0017118 -0.00362359
614 1 2.6 0.8 0 0.999903 -0.00362342 -0.00362342
615 1 2.8 0.8 0 0.999903 -0.00171183 -0.00362336
466 1 3 0.6 0 0.999903 -0.00171178 -0.00362348
467 1 3.2 0.6 0 0.999903 0.000200005 -0.00362365
616 1 3 0.8 0 0.999903 -0.00171171 -0.00362343
617 1 3.2 0.8 0 0.999903 0.000199931 -0.00362346
468 1 3.4 0.6 0 0.999903 -0.00171161 -0.00362338
469 1 3.6 0.6 0 0.999903 -0.00171165 -0.00362342
470 1 3.8 0.6 0 0.999903 -0.00362337 -0.00362357
618 1 3.4 0.8 0 0.999903 -0.00171174 -0.0036235
619 1 3.6 0.8 0 0.999903 -0.00171183 -0.00362348
620 1 3.8 0.8 0 0.999903 -0.00362352 -0.00362347
471 1 4 0.6 0 0.999903 -0.00171175 -0.00362346
472 1 4.2 0.6 0 0.999903 0.000199946 -0.00362347
621 1 4 0.8 0 0.999903 -0.00171176 -0.00362344
622 1 4.2 0.8 0 0.999903 0.000199962 -0.00362344
473 1 4.4 0.6 0 0.999903 -0.00171171 -0.00362344
474 1 4.6 0.6 0 0.999903 -0.00171171 -0.00362342
475 1 4.8 0.6 0 0.999903 -0.00171174 -0.0036234
623 1 4.4 0.8 0 0.999903 -0.00171178 -0.00362351
624 1 4.6 0.8 0 0.999903 -0.0017116 -0.00362349
625 1 4.8 0.8 0 0.999903 -0.0017117 -0.0036234
476 1 5 0.6 0 0.999903 -0.00171171 -0.00362354
477 1 5.2 0.6 0 0.999903 0.000200063 -0.0036234
626 1 5 0.8 0 0.999903 -0.0017117 -0.00362349
627 1 5.2 0.8 0 0.999903 0.000200015 -0.0036234
478 1 5.4 0.6 0 0.999903 0.000200045 -0.0036234
479 1 5.6 0.6 0 0.999903 0.000199943 -0.00362347
480 1 5.8 0.6 0 0.999903 -0.00171173 -0.00362344
628 1 5.4 0.8 0 0.999903 0.00019995 -0.00362341
629 1 5.6 0.8 0 0.999903 0.00019999 -0.00362347
630 1 5.8 0.8 0 0.999903 -0.00171188 -0.00362355
481 1 6 0.6 0 0.999903 -0.0017117 -0.00362337
482 1 6.2 0.6 0 0.999903 0.000199871 -0.00362358
631 1 6 0.8 0 0.999903 -0.0017117 -0.00362336
632 1 6.2 0.8 0 0.999903 0.000199982 -0.0036234
483 1 6.4 0.6 0 0.999903 0.000200015 -0.00362346
484 1 6.6 0.6 0 0.999903 0.000199977 -0.00362342
633 1 6.4 0.8 0 0.999903 0.00019994 -0.00362345
634 1 6.6 0.8 0 0.999903 0.000199988 -0.00362345
485 1 6.8 0.6 0 0.999903 -0.00171183 -0.0036235
486 1 7 0.6 0 0.999903 -0.00171168 -0.00362343
487 1 7.2 0.6 0 0.999903 0.000199819 -0.00362354
635 1 6.8 0.8 0 0.999903 -0.0017118 -0.00362336
636 1 7 0.8 0 0.999903 -0.00171185 -0.00362348
637 1 7.2 0.8 0 0.999903 0.000199863 -0.00362345
488 1 7.4 0.6 0 0.999903 -0.00171176 -0.00362343
489 1 7.6 0.6 0 0.999903 0.000199927 -0.00362339
638 1 7.4 0.8 0 0.999903 -0.0017119 -0.00362348
639 1 7.6 0.8 0 0.999903 0.00019994 -0.00362347
490 1 7.8 0.6 0 0.999903 -0.00171172 -0.00362345
491 1 8 0.6 0 0.999903 -0.00171176 -0.00362343
492 1 8.2 0.6 0 0.999903 -0.00171174 -0.00362345
640 1 7.8 0.8 0 0.999903 -0.00171166 -0.00362339
641 1 8 0.8 0 0.999903 -0.00171165 -0.00362338
642 1 8.2 0.8 0 0.999903 -0.00171178 -0.00362336
493 1 8.4 0.6 0 0.999903 -0.00171174 -0.00362338
494 1 8.6 0.6 0 0.999903 -0.00171166 -0.00362341
643 1 8.4 0.8 0 0.999903 -0.00171176 -0.00362345
644 1 8.6 0.8 0 0.999903 -0.00171171 -0.00362352
495 1 8.8 0.6 0 0.999903 -0.00362341 -0.00362347
496 1 9 0.6 0 0.999903 -0.00171183 -0.0036234
645 1 8.8 0.8 0 0.999903 -0.0036236 -0.0036235
646 1 9 0.8 0 0.999903 -0.00171166 -0.00362344
497 1 9.2 0.6 0 0.999903 -0.00171185 -0.00362347
498 1 9.4 0.6 0 0.999903 -0.00362347 -0.00362337
499 1 9.6 0.6 0 0.999903 -0.00171176 -0.00362336
647 1 9.2 0.8 0 0.999903 -0.00171186 -0.00362333
648 1 9.4 0.8 0 0.999903 -0.00362349 -0.00362337
649 1 9.6 0.8 0 0.999903 -0.00171181 -0.00362346
500 1 9.8 0.6 0 0.999903 -0.00362351 -0.00362353
501 1 10 0.6 0 0.999903 -0.00171174 -0.00362349
650 1 9.8 0.8 0 0.999903 -0.00362348 -0.0036235
651 1 10 0.8 0 0.999903 -0.00171161 -0.00362339
502 1 10.2 0.6 0 0.999903 -0.00171173 -0.00362333
503 1 10.4 0.6 0 0.999903 -0.00171171 -0.0036234
504 1 10.6 0.6 0 0.999903 -0.00171169 -0.00362342
652 1 10.2 0.8 0 0.999903 -0.0017118 -0.00362338
653 1 10.4 0.8 0 0.999903 -0.00171177 -0.00362339
654 1 10.6 0.8 0 0.999903 -0.00171173 -0.0036235
505 1 10.8 0.6 0 0.999903 -0.00362339 -0.00362343
506 1 11 0.6 0 0.999903 -0.00171178 -0.00362355
655 1 10.8 0.8 0 0.999903 -0.00362355 -0.0036234
656 1 11 0.8 0 0.999903 -0.0017119 -0.00362345
507 1 11.2 0.6 0 0.999903 -0.00171177 -0.00362344
508 1 11.4 0.6 0 0.999903 -0.00171179 -0.00362346
509 1 11.6 0.6 0 0.999903 -0.00171168 -0.00362346
657 1 11.2 0.8 0 0.999903 -0.00171172 -0.00362339
658 1 11.4 0.8 0 0.999903 -0.00171181 -0.00362335
659 1 11.6 0.8 0 0.999903 -0.00171169 -0.00362347
510 1 11.8 0.6 0 0.999903 -0.00362356 -0.00362351
511 1 12 0.6 0 0.999903 -0.00171173 -0.00362354
660 1 11.8 0.8 0 0.999903 -0.00362342 -0.00362344
661 1 12 0.8 0 0.999903 -0.00171171 -0.00362349
512 1 12.2 0.6 0 0.999903 -0.00171172 -0.00362345
513 1 12.4 0.6 0 0.999903 -0.00171175 -0.00362347
662 1 12.2 0.8 0 0.999903 -0.00171176 -0.00362337
663 1 12.4 0.8 0 0.999903 -0.00171169 -0.00362334
514 1 12.6 0.6 0 0.999903 -0.00171173 -0.00362343
515 1 12.8 0.6 0 0.999903 -0.00362348 -0.00362349
516 1 13 0.6 0 0.999903 -0.00171177 -0.00362348
664 1 12.6 0.8 0 0.999903 -0.00171172 -0.00362345
665 1 12.8 0.8 0 0.999903 -0.00362343 -0.00362338
666 1 13 0.8 0 0.999903 -0.00171165 -0.00362348
517 1 13.2 0.6 0 0.999903 -0.00171178 -0.0036235
518 1 13.4 0.6 0 0.999903 -0.00171188 -0.0036235
667 1 13.2 0.8 0 0.999903 -0.00171178 -0.00362354
668 1 13.4 0.8 0 0.999903 -0.00171178 -0.00362347
519 1 13.6 0.6 0 0.999903 -0.00171173 -0.00362348
520 1 13.8 0.6 0 0.999903 -0.0036235 -0.00362349
521 1 14 0.6 0 0.999903 -0.00171167 -0.00362346
669 1 13.6 0.8 0 0.999903 -0.00171159 -0.00362342
670 1 13.8 0.8 0 0.999903 -0.00362343 -0.00362336
671 1 14 0.8 0 0.999903 -0.00171159 -0.00362337
522 1 14.2 0.6 0 0.999903 -0.00171164 -0.00362336
523 1 14.4 0.6 0 0.999903 -0.00171169 -0.00362335
672 1 14.2 0.8 0 0.999903 -0.0017117 -0.00362336
673 1 14.4 0.8 0 0.999903 -0.00171171 -0.00362348
524 1 14.6 0.6 0 0.999903 -0.00171171 -0.00362351
525 1 14.8 0.6 0 0.999903 -0.00362342 -0.00362346
674 1 14.6 0.8 0 0.999903 -0.00171183 -0.00362351
675 1 14.8 0.8 0 0.999903 -0.00362348 -0.00362342
526 1 15 0.6 0 0.999903 -0.00171174 -0.00362349
527 1 15.2 0.6 0 0.999903 -0.00171181 -0.00362338
528 1 15.4 0.6 0 0.999903 0.000200004 -0.00362343
676 1 15 0.8 0 0.999903 -0.00171164 -0.00362341
677 1 15.2 0.8 0 0.999903 -0.00171184 -0.00362348
678 1 15.4 0.8 0 0.999903 0.00019999 -0.00362334
529 1 15.6 0.6 0 0.999903 -0.00362339 -0.00362343
530 1 15.8 0.6 0 0.999903 -0.00362347 -0.00362341
679 1 15.6 0.8 0 0.999903 -0.00362345 -0.00362345
680 1 15.8 0.8 0 0.999903 -0.0036234 -0.00362345
531 1 16 0.6 0 0.999903 -0.00171168 -0.0036235
532 1 16.2 0.6 0 0.999903 -0.00171172 -0.00362351
533 1 16.4 0.6 0 0.999903 -0.00171186 -0.00362353
681 1 16 0.8 0 0.999903 -0.00171183 -0.00362349
682 1 16.2 0.8 0 0.999903 -0.00171168 -0.00362339