ITEM: TIMESTEP
0
ITEM: NUMBER OF ATOMS
3111
ITEM: BOX BOUNDS pp pp pp
0.0000000000000000e+00 1.0200000000000001e+01
0.0000000000000000e+00 1.2200000000000001e+01
0.0000000000000000e+00 2.0000000000000001e-01
ITEM: ATOMS id type x y z vx vy vz fx fy fz mass c_density c_peratom[1] c_peratom[2] c_peratom[3] c_peratom[4] c_grad_1 c_grad_2 c_grad_3 c_grad_4 c_gamma
1 2 0 0 0 0 0 0 -1.23114e-06 5.99193e-07 0 0.04 0.999903 -0.00879905 -0.00879906 -0 3.85766e-08 0 0 0 0 0
2 2 0.2 0 0 0 0 0 -0.00955873 3.07295e-07 0 0.04 0.999903 -0.00497565 -0.00879894 -0 -1.99722e-08 0 0 0 0 0
3 2 0.4 0 0 0 0 0 6.18945e-07 2.25889e-07 0 0.04 0.999903 -0.00879916 -0.00879909 -0 -5.6337e-08 0 0 0 0 0
52 2 0 0.2 0 0 0 0 5.12289e-10 -0.00955756 0 0.04 0.999903 -0.00879909 -0.00497555 -0 -9.89109e-08 0 0 0 0 0
53 2 0.2 0.2 0 0 0 0 -0.00955801 -0.00955854 0 0.04 0.999903 -0.00497565 -0.00497572 -0 -3.41412e-08 0 0 0 0 0
54 2 0.4 0.2 0 0 0 0 -8.99583e-07 -0.00955745 0 0.04 0.999903 -0.00879907 -0.00497579 -0 -6.98924e-08 0 0 0 0 0
103 2 0 0.4 0 0 0 0 6.4965e-07 -2.30292e-07 0 0.04 0.999903 -0.00879901 -0.00879905 -0 -1.08068e-07 0 0 0 0 0
104 2 0.2 0.4 0 0 0 0 -0.00955771 -1.13375e-06 0 0.04 0.999903 -0.00497543 -0.00879911 -0 1.12492e-07 0 0 0 0 0
105 2 0.4 0.4 0 0 0 0 -9.41952e-07 8.0649e-07 0 0.04 0.999903 -0.00879884 -0.00879901 -0 1.17272e-07 0 0 0 0 0
4 2 0.6 0 0 0 0 0 3.73697e-07 -5.79838e-07 0 0.04 0.999903 -0.00879878 -0.00879911 -0 -2.60005e-08 0 0 0 0 0
5 2 0.8 0 0 0 0 0 -1.74004e-06 -1.57897e-06 0 0.04 0.999903 -0.00879916 -0.00879901 -0 9.97063e-09 0 0 0 0 0
55 2 0.6 0.2 0 0 0 0 4.52871e-07 -0.00955845 0 0.04 0.999903 -0.00879907 -0.00497564 -0 -6.02267e-08 0 0 0 0 0
56 2 0.8 0.2 0 0 0 0 2.99647e-07 -0.00955794 0 0.04 0.999903 -0.00879902 -0.00497546 -0 -6.82126e-08 0 0 0 0 0
106 2 0.6 0.4 0 0 0 0 -9.20246e-07 1.32927e-06 0 0.04 0.999903 -0.00879884 -0.00879878 -0 -4.85543e-08 0 0 0 0 0
107 2 0.8 0.4 0 0 0 0 -5.73064e-07 2.89388e-07 0 0.04 0.999903 -0.0087989 -0.00879875 -0 -2.27542e-07 0 0 0 0 0
6 2 1 0 0 0 0 0 3.06462e-07 1.51536e-06 0 0.04 0.999903 -0.00879915 -0.008799 -0 -3.19569e-09 0 0 0 0 0
7 2 1.2 0 0 0 0 0 0.0095589 2.83352e-07 0 0.04 0.999903 -0.00497556 -0.00879891 -0 -1.4057e-07 0 0 0 0 0
8 2 1.4 0 0 0 0 0 -1.7483e-07 -6.36801e-07 0 0.04 0.999903 -0.00879912 -0.00879905 -0 4.95412e-09 0 0 0 0 0
57 2 1 0.2 0 0 0 0 1.19458e-06 -0.00955889 0 0.04 0.999903 -0.00879926 -0.00497573 -0 -1.71898e-08 0 0 0 0 0
58 2 1.2 0.2 0 0 0 0 0.00955827 -0.00955887 0 0.04 0.999903 -0.00497544 -0.00497544 -0 -1.92944e-08 0 0 0 0 0
59 2 1.4 0.2 0 0 0 0 -1.14812e-06 -0.00955777 0 0.04 0.999903 -0.00879909 -0.00497557 -0 -8.48731e-08 0 0 0 0 0
108 2 1 0.4 0 0 0 0 3.45153e-07 -1.00689e-06 0 0.04 0.999903 -0.00879884 -0.00879894 -0 -6.36289e-08 0 0 0 0 0
109 2 1.2 0.4 0 0 0 0 0.00955778 -4.7892e-07 0 0.04 0.999903 -0.00497567 -0.00879918 -0 -1.32488e-07 0 0 0 0 0
110 2 1.4 0.4 0 0 0 0 -1.56225e-06 1.04548e-06 0 0.04 0.999903 -0.00879903 -0.0087991 -0 1.99782e-08 0 0 0 0 0
9 2 1.6 0 0 0 0 0 3.81101e-08 9.08991e-09 0 0.04 0.999903 -0.00879899 -0.00879913 -0 -2.59962e-08 0 0 0 0 0
10 2 1.8 0 0 0 0 0 5.77047e-07 -6.52717e-07 0 0.04 0.999903 -0.00879908 -0.008799 -0 -2.71505e-08 0 0 0 0 0
60 2 1.6 0.2 0 0 0 0 3.8807e-07 -0.00955794 0 0.04 0.999903 -0.00879914 -0.00497571 -0 6.37958e-08 0 0 0 0 0
61 2 1.8 0.2 0 0 0 0 6.56436e-07 -0.00955726 0 0.04 0.999903 -0.0087992 -0.0049757 -0 1.4531e-07 0 0 0 0 0
111 2 1.6 0.4 0 0 0 0 -8.33955e-07 1.71163e-06 0 0.04 0.999903 -0.00879885 -0.00879898 -0 1.02521e-08 0 0 0 0 0
112 2 1.8 0.4 0 0 0 0 9.72455e-07 -2.42679e-07 0 0.04 0.999903 -0.00879893 -0.00879914 -0 -1.12369e-08 0 0 0 0 0
11 2 2 0 0 0 0 0 -0.00955844 -1.42481e-06 0 0.04 0.999903 -0.0049759 -0.00879925 -0 -2.70129e-08 0 0 0 0 0
12 2 2.2 0 0 0 0 0 0.00955859 -7.72293e-07 0 0.04 0.999903 -0.00497557 -0.00879924 -0 -6.59047e-08 0 0 0 0 0
13 2 2.4 0 0 0 0 0 0.00955852 2.97358e-07 0 0.04 0.999903 -0.00497605 -0.00879906 -0 -1.02455e-07 0 0 0 0 0
62 2 2 0.2 0 0 0 0 -0.00955912 -0.00955851 0 0.04 0.999903 -0.00497561 -0.00497569 -0 1.28662e-07 0 0 0 0 0
63 2 2.2 0.2 0 0 0 0 0.00955724 -0.00955825 0 0.04 0.999903 -0.00497571 -0.00497542 -0 -4.50615e-08 0 0 0 0 0
64 2 2.4 0.2 0 0 0 0 0.00955889 -0.0095578 0 0.04 0.999903 -0.00497564 -0.00497568 -0 5.11569e-08 0 0 0 0 0
113 2 2 0.4 0 0 0 0 -0.00955888 1.32929e-06 0 0.04 0.999903 -0.00497561 -0.00879896 -0 3.13485e-08 0 0 0 0 0
114 2 2.2 0.4 0 0 0 0 0.00955859 1.31089e-07 0 0.04 0.999903 -0.00497586 -0.00879917 -0 -1.0309e-07 0 0 0 0 0
115 2 2.4 0.4 0 0 0 0 0.00955764 2.51199e-07 0 0.04 0.999903 -0.00497533 -0.008799 -0 -3.15443e-08 0 0 0 0 0
14 2 2.6 0 0 0 0 0 -1.90002e-07 -3.33944e-07 0 0.04 0.999903 -0.00879899 -0.00879898 -0 3.50403e-08 0 0 0 0 0
15 2 2.8 0 0 0 0 0 0.00955737 -8.60485e-07 0 0.04 0.999903 -0.00497564 -0.00879903 -0 5.80712e-08 0 0 0 0 0
65 2 2.6 0.2 0 0 0 0 -2.56077e-07 -0.0095596 0 0.04 0.999903 -0.00879924 -0.00497575 -0 -3.17388e-08 0 0 0 0 0
66 2 2.8 0.2 0 0 0 0 0.00955955 -0.00955771 0 0.04 0.999903 -0.00497571 -0.0049756 -0 -5.40647e-08 0 0 0 0 0
116 2 2.6 0.4 0 0 0 0 4.41061e-07 4.28959e-07 0 0.04 0.999903 -0.00879902 -0.00879911 -0 1.24574e-07 0 0 0 0 0
117 2 2.8 0.4 0 0 0 0 0.0095595 9.67341e-07 0 0.04 0.999903 -0.00497557 -0.008799 -0 -9.00137e-08 0 0 0 0 0
16 2 3 0 0 0 0 0 -0.0095568 -3.17168e-07 0 0.04 0.999903 -0.00497566 -0.0087993 -0 -5.92743e-10 0 0 0 0 0
17 2 3.2 0 0 0 0 0 -8.41063e-07 -9.22152e-07 0 0.04 0.999903 -0.00115229 -0.00879893 -0 -7.85236e-08 0 0 0 0 0
67 2 3 0.2 0 0 0 0 -0.0095582 -0.00955791 0 0.04 0.999903 -0.0049756 -0.00497575 -0 5.98439e-08 0 0 0 0 0
68 2 3.2 0.2 0 0 0 0 -4.44581e-07 -0.00955905 0 0.04 0.999903 -0.00115205 -0.00497565 -0 1.15731e-08 0 0 0 0 0
118 2 3 0.4 0 0 0 0 -0.00956003 -6.4398e-07 0 0.04 0.999903 -0.00497581 -0.00879902 -0 -2.3433e-07 0 0 0 0 0
119 2 3.2 0.4 0 0 0 0 1.0245e-09 2.90129e-07 0 0.04 0.999903 -0.0011523 -0.00879908 -0 -2.13576e-08 0 0 0 0 0
18 2 3.4 0 0 0 0 0 0.00955905 4.52167e-07 0 0.04 0.999903 -0.00497553 -0.00879895 -0 1.74782e-08 0 0 0 0 0
19 2 3.6 0 0 0 0 0 -0.00955923 7.54188e-07 0 0.04 0.999903 -0.00497561 -0.00879904 -0 -2.43804e-08 0 0 0 0 0
20 2 3.8 0 0 0 0 0 4.66523e-07 -3.60408e-07 0 0.04 0.999903 -0.00879918 -0.00879905 -0 8.30234e-08 0 0 0 0 0
69 2 3.4 0.2 0 0 0 0 0.00955832 -0.00955814 0 0.04 0.999903 -0.00497565 -0.00497566 -0 8.18606e-08 0 0 0 0 0
70 2 3.6 0.2 0 0 0 0 -0.00955824 -0.00955921 0 0.04 0.999903 -0.00497564 -0.00497558 -0 -3.28851e-09 0 0 0 0 0
71 2 3.8 0.2 0 0 0 0 -3.90224e-08 -0.00955978 0 0.04 0.999903 -0.00879916 -0.0049757 -0 5.17891e-08 0 0 0 0 0
120 2 3.4 0.4 0 0 0 0 0.00955804 -1.34369e-06 0 0.04 0.999903 -0.00497587 -0.00879915 -0 -1.49602e-07 0 0 0 0 0
121 2 3.6 0.4 0 0 0 0 -0.00955823 -6.01263e-07 0 0.04 0.999903 -0.00497568 -0.00879917 -0 -1.51443e-08 0 0 0 0 0
122 2 3.8 0.4 0 0 0 0 -4.98325e-07 1.37644e-07 0 0.04 0.999903 -0.00879887 -0.00879891 -0 -2.67195e-08 0 0 0 0 0
21 2 4 0 0 0 0 0 -0.00955913 -1.33761e-07 0 0.04 0.999903 -0.00497551 -0.00879909 -0 3.08821e-09 0 0 0 0 0
22 2 4.2 0 0 0 0 0 5.46937e-07 1.32086e-06 0 0.04 0.999903 -0.00115244 -0.00879935 -0 -5.32161e-08 0 0 0 0 0
72 2 4 0.2 0 0 0 0 -0.00955866 -0.00955863 0 0.04 0.999903 -0.00497549 -0.00497567 -0 -8.17546e-08 0 0 0 0 0
73 2 4.2 0.2 0 0 0 0 9.26852e-07 -0.00955958 0 0.04 0.999903 -0.00115225 -0.00497575 -0 7.35851e-08 0 0 0 0 0
123 2 4 0.4 0 0 0 0 -0.00955853 1.92709e-06 0 0.04 0.999903 -0.0049754 -0.00879903 -0 6.58128e-08 0 0 0 0 0
124 2 4.2 0.4 0 0 0 0 2.26262e-07 1.22346e-06 0 0.04 0.999903 -0.00115235 -0.00879918 -0 1.28079e-08 0 0 0 0 0
23 2 4.4 0 0 0 0 0 0.00955804 -5.42604e-08 0 0.04 0.999903 -0.00497561 -0.00879924 -0 -4.35623e-08 0 0 0 0 0
24 2 4.6 0 0 0 0 0 0.00955799 -4.00026e-07 0 0.04 0.999903 -0.00497567 -0.0087991 -0 -3.81855e-08 0 0 0 0 0
25 2 4.8 0 0 0 0 0 0.0095582 1.21929e-06 0 0.04 0.999903 -0.00497569 -0.00879905 -0 -2.4346e-08 0 0 0 0 0
74 2 4.4 0.2 0 0 0 0 0.00955792 -0.00955794 0 0.04 0.999903 -0.00497552 -0.00497569 -0 -3.393e-08 0 0 0 0 0
75 2 4.6 0.2 0 0 0 0 0.00955742 -0.00955862 0 0.04 0.999903 -0.00497576 -0.0049758 -0 -5.9708e-08 0 0 0 0 0
76 2 4.8 0.2 0 0 0 0 0.00956122 -0.00955777 0 0.04 0.999903 -0.00497582 -0.00497572 -0 -5.56821e-09 0 0 0 0 0
125 2 4.4 0.4 0 0 0 0 0.00955991 -4.87763e-07 0 0.04 0.999903 -0.00497553 -0.0087991 -0 4.20236e-08 0 0 0 0 0
126 2 4.6 0.4 0 0 0 0 0.00955808 3.8705e-07 0 0.04 0.999903 -0.00497557 -0.00879887 -0 -6.75991e-08 0 0 0 0 0
127 2 4.8 0.4 0 0 0 0 0.00955917 -3.28218e-07 0 0.04 0.999903 -0.00497557 -0.00879906 -0 -9.5737e-08 0 0 0 0 0
26 2 5 0 0 0 0 0 -0.00955816 -1.30753e-06 0 0.04 0.999903 -0.00497562 -0.00879895 -0 -6.54409e-08 0 0 0 0 0
27 2 5.2 0 0 0 0 0 4.69426e-07 -9.07857e-08 0 0.04 0.999903 -0.00115212 -0.00879905 -0 5.11629e-09 0 0 0 0 0
77 2 5 0.2 0 0 0 0 -0.00955895 -0.00955727 0 0.04 0.999903 -0.00497581 -0.00497586 -0 -6.3938e-08 0 0 0 0 0
78 2 5.2 0.2 0 0 0 0 -1.31243e-07 -0.00955862 0 0.04 0.999903 -0.00115229 -0.00497576 -0 -6.01765e-08 0 0 0 0 0
128 2 5 0.4 0 0 0 0 -0.00955949 5.28941e-07 0 0.04 0.999903 -0.00497562 -0.00879895 -0 8.29467e-08 0 0 0 0 0
129 2 5.2 0.4 0 0 0 0 3.1018e-07 -5.77569e-07 0 0.04 0.999903 -0.0011522 -0.00879883 -0 4.03111e-09 0 0 0 0 0
28 2 5.4 0 0 0 0 0 -4.49725e-07 -9.16197e-07 0 0.04 0.999903 -0.00115207 -0.00879903 -0 1.03993e-07 0 0 0 0 0
29 2 5.6 0 0 0 0 0 -6.65651e-07 -6.61226e-07 0 0.04 0.999903 -0.00115216 -0.00879895 -0 5.6722e-08 0 0 0 0 0
30 2 5.8 0 0 0 0 0 0.00955882 -7.69033e-07 0 0.04 0.999903 -0.00497552 -0.00879897 -0 -7.79144e-09 0 0 0 0 0
79 2 5.4 0.2 0 0 0 0 -2.07823e-08 -0.00955836 0 0.04 0.999903 -0.00115226 -0.00497546 -0 -2.32214e-09 0 0 0 0 0
80 2 5.6 0.2 0 0 0 0 -4.64323e-08 -0.00955883 0 0.04 0.999903 -0.00115234 -0.00497572 -0 7.99876e-08 0 0 0 0 0
81 2 5.8 0.2 0 0 0 0 0.0095588 -0.00955941 0 0.04 0.999903 -0.0049758 -0.00497608 -0 3.46076e-08 0 0 0 0 0
130 2 5.4 0.4 0 0 0 0 -6.36712e-08 1.15452e-06 0 0.04 0.999903 -0.00115194 -0.00879887 -0 2.28726e-08 0 0 0 0 0
131 2 5.6 0.4 0 0 0 0 -4.76544e-07 4.15718e-07 0 0.04 0.999903 -0.00115203 -0.00879905 -0 -3.61359e-08 0 0 0 0 0
132 2 5.8 0.4 0 0 0 0 0.00955938 8.62528e-07 0 0.04 0.999903 -0.00497565 -0.00879927 -0 3.56169e-08 0 0 0 0 0
31 2 6 0 0 0 0 0 -0.00955866 -1.28572e-07 0 0.04 0.999903 -0.00497547 -0.00879861 -0 4.67611e-08 0 0 0 0 0
32 2 6.2 0 0 0 0 0 -1.88864e-06 1.27118e-06 0 0.04 0.999903 -0.00115213 -0.00879928 -0 1.81456e-08 0 0 0 0 0
82 2 6 0.2 0 0 0 0 -0.00955762 -0.00956085 0 0.04 0.999903 -0.00497571 -0.00497564 -0 -9.26438e-09 0 0 0 0 0
83 2 6.2 0.2 0 0 0 0 -9.9855e-07 -0.0095596 0 0.04 0.999903 -0.00115208 -0.00497558 -0 -5.82391e-08 0 0 0 0 0
133 2 6 0.4 0 0 0 0 -0.00955827 1.34711e-07 0 0.04 0.999903 -0.00497563 -0.00879919 -0 7.36264e-08 0 0 0 0 0
134 2 6.2 0.4 0 0 0 0 6.60644e-07 1.30999e-06 0 0.04 0.999903 -0.00115215 -0.00879874 -0 -5.02501e-08 0 0 0 0 0
33 2 6.4 0 0 0 0 0 1.63358e-07 7.47148e-07 0 0.04 0.999903 -0.00115237 -0.00879892 -0 1.21053e-07 0 0 0 0 0
34 2 6.6 0 0 0 0 0 -1.20494e-06 6.62073e-07 0 0.04 0.999903 -0.00115234 -0.00879902 -0 -7.20764e-08 0 0 0 0 0
84 2 6.4 0.2 0 0 0 0 -9.16343e-08 -0.00955832 0 0.04 0.999903 -0.00115214 -0.00497543 -0 -1.97396e-07 0 0 0 0 0
85 2 6.6 0.2 0 0 0 0 -1.0628e-06 -0.00955927 0 0.04 0.999903 -0.001152 -0.00497571 -0 6.00546e-08 0 0 0 0 0
135 2 6.4 0.4 0 0 0 0 8.57583e-07 -3.86398e-07 0 0.04 0.999903 -0.00115207 -0.00879886 -0 -4.50117e-08 0 0 0 0 0
136 2 6.6 0.4 0 0 0 0 1.491e-06 4.31834e-07 0 0.04 0.999903 -0.00115217 -0.00879913 -0 -4.2798e-09 0 0 0 0 0
35 2 6.8 0 0 0 0 0 0.00955743 -1.20192e-06 0 0.04 0.999903 -0.00497569 -0.00879923 -0 -3.05036e-08 0 0 0 0 0
36 2 7 0 0 0 0 0 -0.00955995 2.87648e-07 0 0.04 0.999903 -0.00497578 -0.00879892 -0 1.14641e-08 0 0 0 0 0
37 2 7.2 0 0 0 0 0 1.14547e-06 -3.30391e-07 0 0.04 0.999903 -0.00115252 -0.00879929 -0 -1.93924e-08 0 0 0 0 0
86 2 6.8 0.2 0 0 0 0 0.00955988 -0.0095588 0 0.04 0.999903 -0.00497542 -0.00497557 -0 -5.93825e-08 0 0 0 0 0
87 2 7 0.2 0 0 0 0 -0.00956028 -0.00955932 0 0.04 0.999903 -0.00497574 -0.0049755 -0 -8.19652e-08 0 0 0 0 0
88 2 7.2 0.2 0 0 0 0 -2.0857e-07 -0.00955857 0 0.04 0.999903 -0.00115236 -0.00497572 -0 7.66154e-08 0 0 0 0 0
137 2 6.8 0.4 0 0 0 0 0.00955821 1.17936e-06 0 0.04 0.999903 -0.0049756 -0.00879903 -0 6.67248e-08 0 0 0 0 0
138 2 7 0.4 0 0 0 0 -0.00955927 -1.69468e-07 0 0.04 0.999903 -0.00497541 -0.008799 -0 2.23847e-08 0 0 0 0 0
139 2 7.2 0.4 0 0 0 0 -3.04827e-07 5.87558e-07 0 0.04 0.999903 -0.0011524 -0.00879915 -0 -1.5579e-08 0 0 0 0 0
38 2 7.4 0 0 0 0 0 -0.00955776 -6.84685e-08 0 0.04 0.999903 -0.00497582 -0.00879902 -0 -6.82495e-08 0 0 0 0 0
39 2 7.6 0 0 0 0 0 -8.19214e-07 1.54563e-08 0 0.04 0.999903 -0.00115225 -0.0087991 -0 1.26869e-08 0 0 0 0 0
89 2 7.4 0.2 0 0 0 0 -0.00955875 -0.00955922 0 0.04 0.999903 -0.00497559 -0.00497552 -0 -1.01616e-07 0 0 0 0 0
90 2 7.6 0.2 0 0 0 0 7.885e-07 -0.00955885 0 0.04 0.999903 -0.0011525 -0.00497527 -0 -8.68395e-08 0 0 0 0 0
140 2 7.4 0.4 0 0 0 0 -0.00955794 3.54336e-07 0 0.04 0.999903 -0.00497567 -0.00879907 -0 -1.05252e-07 0 0 0 0 0
141 2 7.6 0.4 0 0 0 0 8.63942e-07 2.18179e-06 0 0.04 0.999903 -0.00115201 -0.00879875 -0 -3.43756e-08 0 0 0 0 0
40 2 7.8 0 0 0 0 0 0.00955717 1.32721e-06 0 0.04 0.999903 -0.0049756 -0.0087991 -0 6.91945e-08 0 0 0 0 0
41 2 8 0 0 0 0 0 -0.00955707 -1.73509e-06 0 0.04 0.999903 -0.00497566 -0.00879904 -0 6.27663e-08 0 0 0 0 0
42 2 8.2 0 0 0 0 0 0.00955874 -1.21272e-06 0 0.04 0.999903 -0.00497558 -0.0087994 -0 -4.9008e-08 0 0 0 0 0
91 2 7.8 0.2 0 0 0 0 0.00955879 -0.00955803 0 0.04 0.999903 -0.00497564 -0.00497551 -0 -5.37962e-09 0 0 0 0 0
92 2 8 0.2 0 0 0 0 -0.00955948 -0.00955858 0 0.04 0.999903 -0.00497572 -0.00497577 -0 4.62557e-08 0 0 0 0 0
93 2 8.2 0.2 0 0 0 0 0.00955912 -0.00955882 0 0.04 0.999903 -0.00497561 -0.00497579 -0 1.69825e-07 0 0 0 0 0
142 2 7.8 0.4 0 0 0 0 0.00955896 -4.99799e-07 0 0.04 0.999903 -0.00497577 -0.00879925 -0 -7.56172e-08 0 0 0 0 0
143 2 8 0.4 0 0 0 0 -0.00955896 7.24779e-08 0 0.04 0.999903 -0.00497575 -0.00879905 -0 2.46538e-08 0 0 0 0 0
144 2 8.2 0.4 0 0 0 0 0.00955681 -9.22784e-07 0 0.04 0.999903 -0.00497565 -0.00879912 -0 -5.70368e-08 0 0 0 0 0
43 2 8.4 0 0 0 0 0 -0.00955896 1.89483e-07 0 0.04 0.999903 -0.00497551 -0.0087991 -0 -6.93384e-08 0 0 0 0 0
44 2 8.6 0 0 0 0 0 -0.00955929 -7.51218e-08 0 0.04 0.999903 -0.00497564 -0.00879893 -0 2.73397e-08 0 0 0 0 0
94 2 8.4 0.2 0 0 0 0 -0.00955899 -0.00955999 0 0.04 0.999903 -0.00497575 -0.0049756 -0 -3.45117e-11 0 0 0 0 0
95 2 8.6 0.2 0 0 0 0 -0.00955942 -0.00955782 0 0.04 0.999903 -0.00497565 -0.00497572 -0 -5.96948e-08 0 0 0 0 0
145 2 8.4 0.4 0 0 0 0 -0.0095578 3.56127e-07 0 0.04 0.999903 -0.00497585 -0.00879919 -0 1.91231e-07 0 0 0 0 0
146 2 8.6 0.4 0 0 0 0 -0.00955733 -7.35893e-07 0 0.04 0.999903 -0.00497567 -0.00879909 -0 -1.13738e-07 0 0 0 0 0
45 2 8.8 0 0 0 0 0 1.2664e-06 -8.20769e-07 0 0.04 0.999903 -0.00879899 -0.00879914 -0 -1.09361e-08 0 0 0 0 0
46 2 9 0 0 0 0 0 -0.00955867 -7.7437e-07 0 0.04 0.999903 -0.00497565 -0.00879901 -0 -1.74727e-07 0 0 0 0 0
47 2 9.2 0 0 0 0 0 0.00955768 -3.32087e-07 0 0.04 0.999903 -0.00497573 -0.00879911 -0 -8.17849e-08 0 0 0 0 0
96 2 8.8 0.2 0 0 0 0 2.0494e-07 -0.00955916 0 0.04 0.999903 -0.00879906 -0.00497545 -0 6.66771e-08 0 0 0 0 0
97 2 9 0.2 0 0 0 0 -0.00955821 -0.00955827 0 0.04 0.999903 -0.00497571 -0.00497569 -0 -2.49848e-09 0 0 0 0 0
98 2 9.2 0.2 0 0 0 0 0.00955833 -0.0095588 0 0.04 0.999903 -0.00497561 -0.00497562 -0 1.55195e-07 0 0 0 0 0
147 2 8.8 0.4 0 0 0 0 -3.86555e-07 1.235e-06 0 0.04 0.999903 -0.00879916 -0.00879938 -0 -1.0784e-07 0 0 0 0 0
148 2 9 0.4 0 0 0 0 -0.00955864 -2.7107e-07 0 0.04 0.999903 -0.00497563 -0.00879921 -0 -3.17727e-09 0 0 0 0 0
149 2 9.2 0.4 0 0 0 0 0.00955846 3.12302e-07 0 0.04 0.999903 -0.00497561 -0.00879919 -0 -1.66033e-07 0 0 0 0 0
48 2 9.4 0 0 0 0 0 -8.94192e-09 -1.42087e-07 0 0.04 0.999903 -0.00879902 -0.00879901 -0 -1.26863e-08 0 0 0 0 0
49 2 9.6 0 0 0 0 0 0.00955813 -9.29805e-07 0 0.04 0.999903 -0.00497565 -0.00879898 -0 -1.1602e-07 0 0 0 0 0
99 2 9.4 0.2 0 0 0 0 -3.79331e-07 -0.009559 0 0.04 0.999903 -0.00879924 -0.0049759 -0 2.44113e-09 0 0 0 0 0
100 2 9.6 0.2 0 0 0 0 0.00955891 -0.0095567 0 0.04 0.999903 -0.00497564 -0.00497561 -0 -2.26278e-08 0 0 0 0 0
150 2 9.4 0.4 0 0 0 0 3.48629e-07 -2.57008e-07 0 0.04 0.999903 -0.00879899 -0.00879907 -0 9.52078e-08 0 0 0 0 0
151 2 9.6 0.4 0 0 0 0 0.00955994 -1.4063e-07 0 0.04 0.999903 -0.00497575 -0.008799 -0 1.13894e-07 0 0 0 0 0
50 2 9.8 0 0 0 0 0 -6.97215e-07 6.28469e-07 0 0.04 0.999903 -0.00879929 -0.00879897 -0 3.13676e-08 0 0 0 0 0
51 2 10 0 0 0 0 0 -0.00955683 -1.17066e-07 0 0.04 0.999903 -0.00497565 -0.00879903 -0 1.09229e-07 0 0 0 0 0
101 2 9.8 0.2 0 0 0 0 -8.88793e-07 -0.00955849 0 0.04 0.999903 -0.00879912 -0.0049757 -0 -1.2999e-07 0 0 0 0 0
102 2 10 0.2 0 0 0 0 -0.00955814 -0.00955849 0 0.04 0.999903 -0.00497575 -0.00497585 -0 -9.81478e-08 0 0 0 0 0
152 2 9.8 0.4 0 0 0 0 3.01844e-07 -5.16038e-07 0 0.04 0.999903 -0.00879915 -0.00879934 -0 -4.85504e-08 0 0 0 0 0
153 2 10 0.4 0 0 0 0 -0.00955728 -9.45877e-07 0 0.04 0.999903 -0.00497555 -0.00879922 -0 -4.47023e-08 0 0 0 0 0
154 2 0 0.6 0 0 0 0 1.31958e-06 -0.291966 0 0.04 0.999903 -0.0195679 -0.0963888 -0 1.36318e-07 0 0 0 0 0
155 2 0.2 0.6 0 0 0 0 -0.00955936 -0.291967 0 0.04 0.999903 -0.0157444 -0.0963889 -0 7.34432e-08 0 0 0 0 0
156 2 0.4 0.6 0 0 0 0 3.66961e-07 -0.291966 0 0.04 0.999903 -0.019568 -0.0963891 -0 -1.51627e-07 0 0 0 0 0
205 2 0 0.8 0 0 0 0 -6.41368e-08 -1.58717 0 0.04 0.999903 -0.105281 -0.35543 -0 1.66973e-07 0 0 0 0 0
206 2 0.2 0.8 0 0 0 0 -0.00955822 -1.58717 0 0.04 0.999903 -0.101457 -0.35543 -0 -1.26633e-07 0 0 0 0 0
207 2 0.4 0.8 0 0 0 0 2.32369e-06 -1.58717 0 0.04 0.999903 -0.105281 -0.35543 -0 4.28863e-08 0 0 0 0 0
157 2 0.6 0.6 0 0 0 0 7.76651e-07 -0.291968 0 0.04 0.999903 -0.019568 -0.096389 -0 -1.38538e-08 0 0 0 0 0
158 2 0.8 0.6 0 0 0 0 -1.1725e-06 -0.291967 0 0.04 0.999903 -0.0195679 -0.0963891 -0 4.76789e-08 0 0 0 0 0
208 2 0.6 0.8 0 0 0 0 7.09373e-08 -1.58717 0 0.04 0.999903 -0.10528 -0.35543 -0 1.32685e-07 0 0 0 0 0
209 2 0.8 0.8 0 0 0 0 -9.26595e-07 -1.58717 0 0.04 0.999903 -0.10528 -0.355429 -0 -1.18605e-07 0 0 0 0 0
159 2 1 0.6 0 0 0 0 8.65104e-07 -0.291965 0 0.04 0.999903 -0.019568 -0.0963888 -0 -7.30531e-08 0 0 0 0 0
160 2 1.2 0.6 0 0 0 0 0.00955931 -0.291967 0 0.04 0.999903 -0.0157445 -0.096389 -0 -5.29686e-09 0 0 0 0 0
161 2 1.4 0.6 0 0 0 0 1.02383e-07 -0.291967 0 0.04 0.999903 -0.0195678 -0.096389 -0 -1.4916e-07 0 0 0 0 0
210 2 1 0.8 0 0 0 0 4.04786e-07 -1.58717 0 0.04 0.999903 -0.105281 -0.35543 -0 3.60341e-08 0 0 0 0 0
211 2 1.2 0.8 0 0 0 0 0.00955772 -1.58717 0 0.04 0.999903 -0.101457 -0.35543 -0 -1.54629e-07 0 0 0 0 0
212 2 1.4 0.8 0 0 0 0 -3.51143e-07 -1.58717 0 0.04 0.999903 -0.105281 -0.35543 -0 1.41334e-08 0 0 0 0 0
162 2 1.6 0.6 0 0 0 0 5.46831e-07 -0.291967 0 0.04 0.999903 -0.019568 -0.096389 -0 9.08122e-09 0 0 0 0 0
163 2 1.8 0.6 0 0 0 0 9.43461e-07 -0.291967 0 0.04 0.999903 -0.019568 -0.096389 -0 -3.87125e-08 0 0 0 0 0
213 2 1.6 0.8 0 0 0 0 -2.1433e-07 -1.58717 0 0.04 0.999903 -0.105281 -0.35543 -0 -1.43121e-07 0 0 0 0 0
214 2 1.8 0.8 0 0 0 0 -2.66462e-06 -1.58717 0 0.04 0.999903 -0.105281 -0.35543 -0 8.87684e-08 0 0 0 0 0
164 2 2 0.6 0 0 0 0 -0.0095587 -0.291968 0 0.04 0.999903 -0.0157445 -0.0963892 -0 1.0531e-08 0 0 0 0 0
165 2 2.2 0.6 0 0 0 0 0.00955877 -0.291967 0 0.04 0.999903 -0.0157448 -0.0963893 -0 4.48857e-08 0 0 0 0 0
166 2 2.4 0.6 0 0 0 0 0.00955867 -0.291968 0 0.04 0.999903 -0.0157444 -0.0963894 -0 1.54042e-07 0 0 0 0 0
215 2 2 0.8 0 0 0 0 -0.00955896 -1.58717 0 0.04 0.999903 -0.101457 -0.35543 -0 2.21068e-08 0 0 0 0 0
216 2 2.2 0.8 0 0 0 0 0.00955873 -1.58717 0 0.04 0.999903 -0.101457 -0.35543 -0 -1.12414e-07 0 0 0 0 0
217 2 2.4 0.8 0 0 0 0 0.0095579 -1.58717 0 0.04 0.999903 -0.101457 -0.35543 -0 -1.19587e-07 0 0 0 0 0
167 2 2.6 0.6 0 0 0 0 5.34303e-07 -0.291966 0 0.04 0.999903 -0.0195681 -0.0963888 -0 2.56535e-08 0 0 0 0 0
168 2 2.8 0.6 0 0 0 0 0.00955845 -0.291967 0 0.04 0.999903 -0.0157446 -0.096389 -0 -5.50193e-08 0 0 0 0 0
218 2 2.6 0.8 0 0 0 0 5.55339e-07 -1.58717 0 0.04 0.999903 -0.105281 -0.35543 -0 -2.13083e-07 0 0 0 0 0
219 2 2.8 0.8 0 0 0 0 0.00955795 -1.58717 0 0.04 0.999903 -0.101457 -0.35543 -0 -2.28364e-08 0 0 0 0 0
169 2 3 0.6 0 0 0 0 -0.00955942 -0.291966 0 0.04 0.999903 -0.0157445 -0.0963892 -0 3.61515e-08 0 0 0 0 0
170 2 3.2 0.6 0 0 0 0 7.62189e-07 -0.291967 0 0.04 0.999903 -0.0119214 -0.096389 -0 -1.14414e-07 0 0 0 0 0
220 2 3 0.8 0 0 0 0 -0.00955971 -1.58717 0 0.04 0.999903 -0.101457 -0.35543 -0 4.02542e-08 0 0 0 0 0
221 2 3.2 0.8 0 0 0 0 1.05421e-06 -1.58717 0 0.04 0.999903 -0.0976337 -0.35543 -0 1.21998e-07 0 0 0 0 0
171 2 3.4 0.6 0 0 0 0 0.00955715 -0.291966 0 0.04 0.999903 -0.0157446 -0.096389 -0 3.9837e-08 0 0 0 0 0
172 2 3.6 0.6 0 0 0 0 -0.00955789 -0.291967 0 0.04 0.999903 -0.0157447 -0.096389 -0 -7.10071e-10 0 0 0 0 0
173 2 3.8 0.6 0 0 0 0 1.10864e-06 -0.291967 0 0.04 0.999903 -0.0195681 -0.0963893 -0 -5.81046e-08 0 0 0 0 0
222 2 3.4 0.8 0 0 0 0 0.00955884 -1.58717 0 0.04 0.999903 -0.101457 -0.35543 -0 3.5391e-08 0 0 0 0 0
223 2 3.6 0.8 0 0 0 0 -0.00955763 -1.58717 0 0.04 0.999903 -0.101457 -0.35543 -0 -3.85149e-08 0 0 0 0 0
224 2 3.8 0.8 0 0 0 0 5.92593e-07 -1.58717 0 0.04 0.999903 -0.10528 -0.35543 -0 3.97191e-08 0 0 0 0 0
174 2 4 0.6 0 0 0 0 -0.00955882 -0.291966 0 0.04 0.999903 -0.0157447 -0.0963891 -0 -7.40745e-08 0 0 0 0 0
175 2 4.2 0.6 0 0 0 0 -8.71784e-07 -0.291967 0 0.04 0.999903 -0.0119211 -0.096389 -0 6.6162e-08 0 0 0 0 0
225 2 4 0.8 0 0 0 0 -0.00955813 -1.58717 0 0.04 0.999903 -0.101457 -0.35543 -0 -4.89089e-08 0 0 0 0 0
226 2 4.2 0.8 0 0 0 0 3.39619e-07 -1.58717 0 0.04 0.999903 -0.0976338 -0.35543 -0 -1.24695e-07 0 0 0 0 0
176 2 4.4 0.6 0 0 0 0 0.00955863 -0.291967 0 0.04 0.999903 -0.0157446 -0.0963892 -0 -2.02934e-08 0 0 0 0 0
177 2 4.6 0.6 0 0 0 0 0.009559 -0.291966 0 0.04 0.999903 -0.0157445 -0.0963892 -0 1.4625e-07 0 0 0 0 0
178 2 4.8 0.6 0 0 0 0 0.009557 -0.291968 0 0.04 0.999903 -0.0157445 -0.0963893 -0 -2.87939e-08 0 0 0 0 0
227 2 4.4 0.8 0 0 0 0 0.00955737 -1.58717 0 0.04 0.999903 -0.101457 -0.35543 -0 -9.71257e-08 0 0 0 0 0
228 2 4.6 0.8 0 0 0 0 0.00955755 -1.58717 0 0.04 0.999903 -0.101457 -0.35543 -0 -3.55997e-08 0 0 0 0 0
229 2 4.8 0.8 0 0 0 0 0.0095585 -1.58717 0 0.04 0.999903 -0.101457 -0.35543 -0 -4.78174e-10 0 0 0 0 0
179 2 5 0.6 0 0 0 0 -0.00955855 -0.291967 0 0.04 0.999903 -0.0157445 -0.096389 -0 5.52983e-08 0 0 0 0 0
180 2 5.2 0.6 0 0 0 0 5.90592e-07 -0.291967 0 0.04 0.999903 -0.0119212 -0.0963892 -0 -1.44103e-08 0 0 0 0 0
230 2 5 0.8 0 0 0 0 -0.00955855 -1.58717 0 0.04 0.999903 -0.101457 -0.35543 -0 -8.77047e-08 0 0 0 0 0
231 2 5.2 0.8 0 0 0 0 2.62791e-07 -1.58717 0 0.04 0.999903 -0.0976339 -0.35543 -0 3.04063e-08 0 0 0 0 0
181 2 5.4 0.6 0 0 0 0 -8.08731e-08 -0.291967 0 0.04 0.999903 -0.0119213 -0.0963891 -0 -1.638e-07 0 0 0 0 0
182 2 5.6 0.6 0 0 0 0 -9.48818e-07 -0.291966 0 0.04 0.999903 -0.0119211 -0.096389 -0 5.63436e-08 0 0 0 0 0
183 2 5.8 0.6 0 0 0 0 0.00955833 -0.291965 0 0.04 0.999903 -0.0157446 -0.096389 -0 -7.79578e-08 0 0 0 0 0
232 2 5.4 0.8 0 0 0 0 -3.91753e-07 -1.58717 0 0.04 0.999903 -0.0976337 -0.35543 -0 -1.46264e-07 0 0 0 0 0
233 2 5.6 0.8 0 0 0 0 -4.81793e-07 -1.58717 0 0.04 0.999903 -0.0976337 -0.35543 -0 -5.92221e-08 0 0 0 0 0
234 2 5.8 0.8 0 0 0 0 0.00955805 -1.58717 0 0.04 0.999903 -0.101457 -0.35543 -0 6.84548e-10 0 0 0 0 0
184 2 6 0.6 0 0 0 0 -0.00955833 -0.291967 0 0.04 0.999903 -0.0157443 -0.0963889 -0 4.61182e-08 0 0 0 0 0
185 2 6.2 0.6 0 0 0 0 -1.29697e-06 -0.291969 0 0.04 0.999903 -0.0119213 -0.096389 -0 -8.33014e-08 0 0 0 0 0
235 2 6 0.8 0 0 0 0 -0.00955656 -1.58717 0 0.04 0.999903 -0.101457 -0.35543 -0 3.36395e-07 0 0 0 0 0
236 2 6.2 0.8 0 0 0 0 -8.25803e-07 -1.58717 0 0.04 0.999903 -0.0976337 -0.35543 -0 6.55655e-08 0 0 0 0 0
186 2 6.4 0.6 0 0 0 0 1.74304e-06 -0.291969 0 0.04 0.999903 -0.0119211 -0.096389 -0 3.27943e-08 0 0 0 0 0
187 2 6.6 0.6 0 0 0 0 -7.18317e-07 -0.291966 0 0.04 0.999903 -0.0119211 -0.0963893 -0 3.67172e-08 0 0 0 0 0
237 2 6.4 0.8 0 0 0 0 -2.57692e-07 -1.58717 0 0.04 0.999903 -0.0976337 -0.35543 -0 -9.4228e-08 0 0 0 0 0
238 2 6.6 0.8 0 0 0 0 -4.33646e-07 -1.58717 0 0.04 0.999903 -0.0976339 -0.35543 -0 6.96222e-08 0 0 0 0 0
188 2 6.8 0.6 0 0 0 0 0.00955735 -0.291968 0 0.04 0.999903 -0.0157448 -0.0963894 -0 -7.77812e-08 0 0 0 0 0
189 2 7 0.6 0 0 0 0 -0.00955713 -0.291967 0 0.04 0.999903 -0.0157444 -0.0963892 -0 5.92738e-08 0 0 0 0 0
190 2 7.2 0.6 0 0 0 0 1.91065e-07 -0.291966 0 0.04 0.999903 -0.0119214 -0.096389 -0 8.86961e-08 0 0 0 0 0
239 2 6.8 0.8 0 0 0 0 0.00955697 -1.58717 0 0.04 0.999903 -0.101457 -0.35543 -0 -7.61829e-08 0 0 0 0 0
240 2 7 0.8 0 0 0 0 -0.00955909 -1.58717 0 0.04 0.999903 -0.101457 -0.35543 -0 -3.83119e-08 0 0 0 0 0
241 2 7.2 0.8 0 0 0 0 4.12314e-07 -1.58717 0 0.04 0.999903 -0.0976337 -0.35543 -0 4.13393e-08 0 0 0 0 0
191 2 7.4 0.6 0 0 0 0 -0.00955829 -0.291966 0 0.04 0.999903 -0.0157446 -0.0963887 -0 -1.47463e-07 0 0 0 0 0
192 2 7.6 0.6 0 0 0 0 3.10231e-07 -0.291968 0 0.04 0.999903 -0.0119211 -0.096389 -0 1.76893e-08 0 0 0 0 0
242 2 7.4 0.8 0 0 0 0 -0.00955953 -1.58717 0 0.04 0.999903 -0.101457 -0.35543 -0 -7.87786e-08 0 0 0 0 0
243 2 7.6 0.8 0 0 0 0 -3.2182e-07 -1.58717 0 0.04 0.999903 -0.097634 -0.35543 -0 8.97132e-08 0 0 0 0 0
193 2 7.8 0.6 0 0 0 0 0.00955725 -0.291967 0 0.04 0.999903 -0.0157448 -0.0963892 -0 2.421e-09 0 0 0 0 0
194 2 8 0.6 0 0 0 0 -0.00955804 -0.291967 0 0.04 0.999903 -0.0157447 -0.0963894 -0 -1.0267e-07 0 0 0 0 0
195 2 8.2 0.6 0 0 0 0 0.00955893 -0.291966 0 0.04 0.999903 -0.0157447 -0.0963892 -0 1.03069e-07 0 0 0 0 0
244 2 7.8 0.8 0 0 0 0 0.00955741 -1.58717 0 0.04 0.999903 -0.101457 -0.35543 -0 -2.6868e-08 0 0 0 0 0
245 2 8 0.8 0 0 0 0 -0.00955921 -1.58717 0 0.04 0.999903 -0.101457 -0.35543 -0 8.7142e-08 0 0 0 0 0
246 2 8.2 0.8 0 0 0 0 0.00955869 -1.58717 0 0.04 0.999903 -0.101457 -0.35543 -0 -6.17234e-08 0 0 0 0 0
196 2 8.4 0.6 0 0 0 0 -0.00955799 -0.291967 0 0.04 0.999903 -0.0157447 -0.096389 -0 -1.72218e-07 0 0 0 0 0
197 2 8.6 0.6 0 0 0 0 -0.00955738 -0.291967 0 0.04 0.999903 -0.0157448 -0.0963892 -0 4.38243e-08 0 0 0 0 0
247 2 8.4 0.8 0 0 0 0 -0.00955833 -1.58717 0 0.04 0.999903 -0.101457 -0.35543 -0 1.7829e-07 0 0 0 0 0
248 2 8.6 0.8 0 0 0 0 -0.00955854 -1.58717 0 0.04 0.999903 -0.101457 -0.35543 -0 -1.7506e-07 0 0 0 0 0
198 2 8.8 0.6 0 0 0 0 6.16281e-07 -0.291967 0 0.04 0.999903 -0.0195681 -0.0963891 -0 -1.15838e-08 0 0 0 0 0
199 2 9 0.6 0 0 0 0 -0.00955909 -0.291967 0 0.04 0.999903 -0.0157447 -0.0963893 -0 1.28229e-07 0 0 0 0 0
200 2 9.2 0.6 0 0 0 0 0.0095592 -0.291967 0 0.04 0.999903 -0.0157446 -0.0963889 -0 -9.68211e-08 0 0 0 0 0
249 2 8.8 0.8 0 0 0 0 -8.89039e-07 -1.58717 0 0.04 0.999903 -0.105281 -0.35543 -0 1.47537e-07 0 0 0 0 0
250 2 9 0.8 0 0 0 0 -0.00955821 -1.58717 0 0.04 0.999903 -0.101457 -0.35543 -0 -1.05976e-08 0 0 0 0 0
251 2 9.2 0.8 0 0 0 0 0.00955877 -1.58717 0 0.04 0.999903 -0.101457 -0.35543 -0 -3.32958e-08 0 0 0 0 0
201 2 9.4 0.6 0 0 0 0 -6.53061e-07 -0.291965 0 0.04 0.999903 -0.0195681 -0.0963889 -0 -1.67885e-07 0 0 0 0 0
202 2 9.6 0.6 0 0 0 0 0.00955817 -0.291967 0 0.04 0.999903 -0.0157447 -0.096389 -0 9.86873e-08 0 0 0 0 0
252 2 9.4 0.8 0 0 0 0 -3.30755e-07 -1.58717 0 0.04 0.999903 -0.10528 -0.35543 -0 -9.71736e-09 0 0 0 0 0
253 2 9.6 0.8 0 0 0 0 0.00955665 -1.58717 0 0.04 0.999903 -0.101457 -0.35543 -0 -1.02285e-07 0 0 0 0 0
203 2 9.8 0.6 0 0 0 0 8.84516e-07 -0.291968 0 0.04 0.999903 -0.0195678 -0.0963889 -0 1.178e-07 0 0 0 0 0
204 2 10 0.6 0 0 0 0 -0.00955797 -0.291967 0 0.04 0.999903 -0.0157445 -0.096389 -0 1.72447e-07 0 0 0 0 0
254 2 9.8 0.8 0 0 0 0 -1.91338e-06 -1.58717 0 0.04 0.999903 -0.10528 -0.35543 -0 -8.28525e-08 0 0 0 0 0
255 2 10 0.8 0 0 0 0 -0.0095575 -1.58717 0 0.04 0.999903 -0.101457 -0.35543 -0 1.7928e-07 0 0 0 0 0
256 2 0 1 0 0 0 0 1.50667e-06 -1.00274 0 0.04 0.999903 -0.293291 -0.296986 -0 1.07588e-07 0 0 0 0 0
257 2 0.2 1 0 0 0 0 -0.00955883 -1.00273 0 0.04 0.999903 -0.289468 -0.296986 -0 2.18778e-07 0 0 0 0 0
258 2 0.4 1 0 0 0 0 1.72607e-06 -1.00274 0 0.04 0.999903 -0.293291 -0.296986 -0 6.37539e-08 0 0 0 0 0
307 1 0 1.2 0 0 0 0 -3.68896e-07 1.01229 0 0.04 0.999903 -0.293292 -0.293163 -0 -2.19516e-07 0 0 0 0 0
308 1 0.2 1.2 0 0 0 0 -0.00955841 1.01229 0 0.04 0.999903 -0.289468 -0.293163 -0 4.30391e-08 0 0 0 0 0
309 1 0.4 1.2 0 0 0 0 1.22903e-06 1.0123 0 0.04 0.999903 -0.293291 -0.293163 -0 1.83399e-07 0 0 0 0 0
358 1 0 1.4 0 0 0 0 2.35795e-06 1.58717 0 0.04 0.999903 -0.105281 -0.35543 -0 1.28204e-07 0 0 0 0 0
359 1 0.2 1.4 0 0 0 0 -0.00955871 1.58717 0 0.04 0.999903 -0.101457 -0.35543 -0 -1.66792e-07 0 0 0 0 0
360 1 0.4 1.4 0 0 0 0 -1.69524e-06 1.58717 0 0.04 0.999903 -0.10528 -0.35543 -0 -2.15645e-07 0 0 0 0 0
259 2 0.6 1 0 0 0 0 -3.19334e-06 -1.00273 0 0.04 0.999903 -0.293291 -0.296986 -0 -2.06322e-07 0 0 0 0 0
260 2 0.8 1 0 0 0 0 1.71987e-06 -1.00273 0 0.04 0.999903 -0.293291 -0.296986 -0 6.25872e-08 0 0 0 0 0
310 1 0.6 1.2 0 0 0 0 -2.49702e-07 1.01229 0 0.04 0.999903 -0.29329 -0.293162 -0 -1.19454e-07 0 0 0 0 0
311 1 0.8 1.2 0 0 0 0 5.12976e-06 1.01229 0 0.04 0.999903 -0.293291 -0.293162 -0 1.92231e-07 0 0 0 0 0
361 1 0.6 1.4 0 0 0 0 -6.07897e-07 1.58717 0 0.04 0.999903 -0.105281 -0.35543 -0 1.46426e-07 0 0 0 0 0
362 1 0.8 1.4 0 0 0 0 -3.11631e-06 1.58717 0 0.04 0.999903 -0.105281 -0.35543 -0 3.87466e-07 0 0 0 0 0
261 2 1 1 0 0 0 0 -6.75013e-07 -1.00273 0 0.04 0.999903 -0.293291 -0.296986 -0 -6.81087e-08 0 0 0 0 0
262 2 1.2 1 0 0 0 0 0.00955748 -1.00273 0 0.04 0.999903 -0.289468 -0.296986 -0 -1.22981e-07 0 0 0 0 0
263 2 1.4 1 0 0 0 0 -6.79952e-07 -1.00273 0 0.04 0.999903 -0.293291 -0.296987 -0 1.18009e-07 0 0 0 0 0
312 1 1 1.2 0 0 0 0 5.66527e-07 1.01229 0 0.04 0.999903 -0.293291 -0.293163 -0 6.70764e-08 0 0 0 0 0
313 1 1.2 1.2 0 0 0 0 0.00955903 1.01229 0 0.04 0.999903 -0.289468 -0.293162 -0 1.91598e-07 0 0 0 0 0
314 1 1.4 1.2 0 0 0 0 1.87461e-06 1.01229 0 0.04 0.999903 -0.293291 -0.293163 -0 -3.9813e-07 0 0 0 0 0