ITEM: TIMESTEP
0
ITEM: NUMBER OF ATOMS
7800
ITEM: BOX BOUNDS pp pp pp
0.0000000000000000e+00 2.6000000000000000e+01
0.0000000000000000e+00 1.2000000000000000e+01
0.0000000000000000e+00 2.0000000000000001e-01
ITEM: ATOMS id type x y z vx vy vz fx fy fz mass c_density c_peratom[1] c_peratom[2]
1 3 0 0 0 0 0 0 -0.00953924 1.00271 0 0.04 0.999903 -0.289464 -0.29698
2 3 0.2 0 0 0 0 0 -0.00957421 1.00271 0 0.04 0.999903 -0.289468 -0.29698
3 3 0.4 0 0 0 0 0 -0.00956432 1.00273 0 0.04 0.999903 -0.289463 -0.296974
131 3 0 0.2 0 0 0 0 -0.00954562 1.58713 0 0.04 0.999903 -0.101459 -0.355424
132 3 0.2 0.2 0 0 0 0 -0.00956603 1.58718 0 0.04 0.999903 -0.101459 -0.355427
133 3 0.4 0.2 0 0 0 0 -0.00954819 1.58715 0 0.04 0.999903 -0.101463 -0.355427
261 3 0 0.4 0 0 0 0 -0.00958204 0.291898 0 0.04 0.999903 -0.015743 -0.0963879
262 3 0.2 0.4 0 0 0 0 -0.00956556 0.291918 0 0.04 0.999903 -0.0157426 -0.0963819
263 3 0.4 0.4 0 0 0 0 -0.00952647 0.291952 0 0.04 0.999903 -0.0157433 -0.0963843
4 3 0.6 0 0 0 0 0 -8.98071e-06 1.00275 0 0.04 0.999903 -0.293297 -0.296985
5 3 0.8 0 0 0 0 0 -2.58178e-05 1.00274 0 0.04 0.999903 -0.293291 -0.296982
134 3 0.6 0.2 0 0 0 0 -2.43212e-05 1.58716 0 0.04 0.999903 -0.105279 -0.355419
135 3 0.8 0.2 0 0 0 0 -1.67765e-05 1.58721 0 0.04 0.999903 -0.105285 -0.355426
264 3 0.6 0.4 0 0 0 0 3.26393e-05 0.291986 0 0.04 0.999903 -0.0195713 -0.0963899
265 3 0.8 0.4 0 0 0 0 1.00964e-05 0.291949 0 0.04 0.999903 -0.0195674 -0.0963833
6 3 1 0 0 0 0 0 -2.83899e-05 1.0027 0 0.04 0.999903 -0.293291 -0.296974
7 3 1.2 0 0 0 0 0 0.00958122 1.00274 0 0.04 0.999903 -0.289466 -0.29698
8 3 1.4 0 0 0 0 0 -1.28603e-05 1.00271 0 0.04 0.999903 -0.293289 -0.296978
136 3 1 0.2 0 0 0 0 2.46188e-05 1.58715 0 0.04 0.999903 -0.105279 -0.355424
137 3 1.2 0.2 0 0 0 0 0.00956647 1.58717 0 0.04 0.999903 -0.101453 -0.355425
138 3 1.4 0.2 0 0 0 0 -2.7583e-05 1.58717 0 0.04 0.999903 -0.105284 -0.355423
266 3 1 0.4 0 0 0 0 -2.0166e-05 0.291977 0 0.04 0.999903 -0.0195658 -0.0963782
267 3 1.2 0.4 0 0 0 0 0.00955522 0.29196 0 0.04 0.999903 -0.0157408 -0.096388
268 3 1.4 0.4 0 0 0 0 1.96979e-05 0.291943 0 0.04 0.999903 -0.0195721 -0.0963857
9 3 1.6 0 0 0 0 0 5.4441e-06 1.0027 0 0.04 0.999903 -0.293292 -0.296981
10 3 1.8 0 0 0 0 0 -7.86094e-06 1.0027 0 0.04 0.999903 -0.293296 -0.296986
139 3 1.6 0.2 0 0 0 0 -1.0574e-05 1.58713 0 0.04 0.999903 -0.10528 -0.355433
140 3 1.8 0.2 0 0 0 0 4.33001e-06 1.5872 0 0.04 0.999903 -0.105284 -0.355427
269 3 1.6 0.4 0 0 0 0 -2.27891e-05 0.291949 0 0.04 0.999903 -0.0195621 -0.0963858
270 3 1.8 0.4 0 0 0 0 -1.3215e-05 0.291978 0 0.04 0.999903 -0.0195652 -0.0963845
11 3 2 0 0 0 0 0 -0.00954561 1.00273 0 0.04 0.999903 -0.289468 -0.296981
12 3 2.2 0 0 0 0 0 0.00953362 1.00274 0 0.04 0.999903 -0.289469 -0.296984
13 3 2.4 0 0 0 0 0 0.00954671 1.00273 0 0.04 0.999903 -0.289468 -0.296985
141 3 2 0.2 0 0 0 0 -0.00955751 1.58719 0 0.04 0.999903 -0.101454 -0.355425
142 3 2.2 0.2 0 0 0 0 0.00954411 1.58714 0 0.04 0.999903 -0.101465 -0.355431
143 3 2.4 0.2 0 0 0 0 0.00954443 1.58718 0 0.04 0.999903 -0.10146 -0.355426
271 3 2 0.4 0 0 0 0 -0.00954512 0.291933 0 0.04 0.999903 -0.015745 -0.0963796
272 3 2.2 0.4 0 0 0 0 0.00956473 0.291948 0 0.04 0.999903 -0.0157429 -0.0963849
273 3 2.4 0.4 0 0 0 0 0.00958758 0.291967 0 0.04 0.999903 -0.0157442 -0.0963902
14 3 2.6 0 0 0 0 0 3.92853e-05 1.00273 0 0.04 0.999903 -0.293292 -0.296982
15 3 2.8 0 0 0 0 0 0.0095602 1.0027 0 0.04 0.999903 -0.289465 -0.296979
144 3 2.6 0.2 0 0 0 0 1.96417e-05 1.58714 0 0.04 0.999903 -0.105277 -0.355423
145 3 2.8 0.2 0 0 0 0 0.00957681 1.58716 0 0.04 0.999903 -0.101454 -0.355426
274 3 2.6 0.4 0 0 0 0 3.54231e-05 0.291981 0 0.04 0.999903 -0.0195695 -0.096384
275 3 2.8 0.4 0 0 0 0 0.00958132 0.291954 0 0.04 0.999903 -0.0157485 -0.0963864
16 3 3 0 0 0 0 0 -0.00956625 1.00271 0 0.04 0.999903 -0.289467 -0.296984
17 3 3.2 0 0 0 0 0 -2.98179e-05 1.00273 0 0.04 0.999903 -0.285639 -0.296983
146 3 3 0.2 0 0 0 0 -0.00956241 1.58719 0 0.04 0.999903 -0.10145 -0.355426
147 3 3.2 0.2 0 0 0 0 3.69137e-06 1.58716 0 0.04 0.999903 -0.0976319 -0.355427
276 3 3 0.4 0 0 0 0 -0.00958189 0.291922 0 0.04 0.999903 -0.0157452 -0.0963882
277 3 3.2 0.4 0 0 0 0 2.42374e-05 0.291954 0 0.04 0.999903 -0.01192 -0.096384
18 3 3.4 0 0 0 0 0 0.00955124 1.00276 0 0.04 0.999903 -0.289465 -0.29699
19 3 3.6 0 0 0 0 0 -0.00954446 1.00273 0 0.04 0.999903 -0.289463 -0.296984
20 3 3.8 0 0 0 0 0 -1.24016e-05 1.00273 0 0.04 0.999903 -0.293288 -0.296985
148 3 3.4 0.2 0 0 0 0 0.00956122 1.58718 0 0.04 0.999903 -0.101457 -0.355425
149 3 3.6 0.2 0 0 0 0 -0.009553 1.58718 0 0.04 0.999903 -0.10145 -0.355428
150 3 3.8 0.2 0 0 0 0 -2.09112e-05 1.58714 0 0.04 0.999903 -0.105278 -0.355422
278 3 3.4 0.4 0 0 0 0 0.00962076 0.291978 0 0.04 0.999903 -0.0157418 -0.096381
279 3 3.6 0.4 0 0 0 0 -0.0095493 0.291987 0 0.04 0.999903 -0.0157415 -0.0963835
280 3 3.8 0.4 0 0 0 0 -1.44032e-05 0.291924 0 0.04 0.999903 -0.0195673 -0.0963842
21 3 4 0 0 0 0 0 -0.00958248 1.00273 0 0.04 0.999903 -0.289464 -0.29698
22 3 4.2 0 0 0 0 0 -2.18999e-05 1.00274 0 0.04 0.999903 -0.285644 -0.296985
151 3 4 0.2 0 0 0 0 -0.00954634 1.58716 0 0.04 0.999903 -0.101456 -0.355426
152 3 4.2 0.2 0 0 0 0 -5.01375e-05 1.58721 0 0.04 0.999903 -0.0976301 -0.355422
281 3 4 0.4 0 0 0 0 -0.00953264 0.291929 0 0.04 0.999903 -0.0157475 -0.0963901
282 3 4.2 0.4 0 0 0 0 1.81449e-05 0.291971 0 0.04 0.999903 -0.0119226 -0.0963843
23 3 4.4 0 0 0 0 0 0.00959217 1.00268 0 0.04 0.999903 -0.289467 -0.296977
24 3 4.6 0 0 0 0 0 0.00954966 1.00273 0 0.04 0.999903 -0.28947 -0.296988
25 3 4.8 0 0 0 0 0 0.00956555 1.00275 0 0.04 0.999903 -0.289471 -0.296987
153 3 4.4 0.2 0 0 0 0 0.00959773 1.58714 0 0.04 0.999903 -0.101459 -0.355425
154 3 4.6 0.2 0 0 0 0 0.00956293 1.58716 0 0.04 0.999903 -0.101455 -0.35542
155 3 4.8 0.2 0 0 0 0 0.00955355 1.58717 0 0.04 0.999903 -0.101461 -0.355425
283 3 4.4 0.4 0 0 0 0 0.00955701 0.291942 0 0.04 0.999903 -0.0157434 -0.0963819
284 3 4.6 0.4 0 0 0 0 0.0095289 0.291972 0 0.04 0.999903 -0.0157415 -0.0963921
285 3 4.8 0.4 0 0 0 0 0.00958163 0.291961 0 0.04 0.999903 -0.0157346 -0.0963864
26 3 5 0 0 0 0 0 -0.00952771 1.00272 0 0.04 0.999903 -0.289461 -0.296977
27 3 5.2 0 0 0 0 0 3.11752e-06 1.00274 0 0.04 0.999903 -0.285644 -0.296984
156 3 5 0.2 0 0 0 0 -0.00953774 1.58715 0 0.04 0.999903 -0.101461 -0.355426
157 3 5.2 0.2 0 0 0 0 3.72591e-06 1.58716 0 0.04 0.999903 -0.0976357 -0.35543
286 3 5 0.4 0 0 0 0 -0.00958288 0.291929 0 0.04 0.999903 -0.0157424 -0.0963921
287 3 5.2 0.4 0 0 0 0 -1.36108e-05 0.291906 0 0.04 0.999903 -0.0119242 -0.0963873
28 3 5.4 0 0 0 0 0 -3.75026e-05 1.00271 0 0.04 0.999903 -0.285649 -0.296985
29 3 5.6 0 0 0 0 0 -6.47343e-06 1.00271 0 0.04 0.999903 -0.285641 -0.296975
158 3 5.4 0.2 0 0 0 0 -3.46996e-05 1.58715 0 0.04 0.999903 -0.0976324 -0.355427
159 3 5.6 0.2 0 0 0 0 1.72757e-05 1.58715 0 0.04 0.999903 -0.0976323 -0.355425
288 3 5.4 0.4 0 0 0 0 2.26413e-05 0.291971 0 0.04 0.999903 -0.0119172 -0.0963867
289 3 5.6 0.4 0 0 0 0 1.43528e-05 0.291949 0 0.04 0.999903 -0.0119288 -0.0963861
30 3 5.8 0 0 0 0 0 0.00956478 1.00277 0 0.04 0.999903 -0.28947 -0.296985
31 3 6 0 0 0 0 0 -0.0096033 1.00272 0 0.04 0.999903 -0.289475 -0.296991
32 3 6.2 0 0 0 0 0 6.78167e-06 1.00274 0 0.04 0.999903 -0.285645 -0.296982
160 3 5.8 0.2 0 0 0 0 0.00956862 1.58715 0 0.04 0.999903 -0.101457 -0.355426
161 3 6 0.2 0 0 0 0 -0.00954482 1.58719 0 0.04 0.999903 -0.10146 -0.355428
162 3 6.2 0.2 0 0 0 0 3.44078e-05 1.58717 0 0.04 0.999903 -0.0976398 -0.355433
290 3 5.8 0.4 0 0 0 0 0.00954653 0.291959 0 0.04 0.999903 -0.0157416 -0.0963846
291 3 6 0.4 0 0 0 0 -0.00953012 0.291965 0 0.04 0.999903 -0.015739 -0.0963835
292 3 6.2 0.4 0 0 0 0 -2.06657e-05 0.291931 0 0.04 0.999903 -0.0119214 -0.0963844
33 3 6.4 0 0 0 0 0 -5.33388e-06 1.00275 0 0.04 0.999903 -0.285651 -0.296983
34 3 6.6 0 0 0 0 0 4.61713e-05 1.00267 0 0.04 0.999903 -0.285649 -0.296987
163 3 6.4 0.2 0 0 0 0 -5.561e-06 1.58716 0 0.04 0.999903 -0.0976323 -0.355428
164 3 6.6 0.2 0 0 0 0 -1.523e-05 1.58713 0 0.04 0.999903 -0.0976308 -0.35543
293 3 6.4 0.4 0 0 0 0 -1.15623e-05 0.291963 0 0.04 0.999903 -0.0119236 -0.0963911
294 3 6.6 0.4 0 0 0 0 5.45674e-06 0.291973 0 0.04 0.999903 -0.0119222 -0.0963877
35 3 6.8 0 0 0 0 0 0.00958192 1.0027 0 0.04 0.999903 -0.289465 -0.29698
36 3 7 0 0 0 0 0 -0.00957671 1.00274 0 0.04 0.999903 -0.289462 -0.296982
37 3 7.2 0 0 0 0 0 -1.23288e-05 1.00273 0 0.04 0.999903 -0.285639 -0.296977
165 3 6.8 0.2 0 0 0 0 0.0095709 1.58719 0 0.04 0.999903 -0.101462 -0.35543
166 3 7 0.2 0 0 0 0 -0.00957879 1.58716 0 0.04 0.999903 -0.101452 -0.355417
167 3 7.2 0.2 0 0 0 0 2.43146e-05 1.58715 0 0.04 0.999903 -0.0976322 -0.355426
295 3 6.8 0.4 0 0 0 0 0.00955807 0.291979 0 0.04 0.999903 -0.0157498 -0.0963849
296 3 7 0.4 0 0 0 0 -0.00957086 0.291939 0 0.04 0.999903 -0.0157434 -0.0963881
297 3 7.2 0.4 0 0 0 0 9.17389e-06 0.291966 0 0.04 0.999903 -0.0119157 -0.0963786
38 3 7.4 0 0 0 0 0 -0.00954956 1.00269 0 0.04 0.999903 -0.289467 -0.296984
39 3 7.6 0 0 0 0 0 1.7277e-05 1.00272 0 0.04 0.999903 -0.285642 -0.296978
168 3 7.4 0.2 0 0 0 0 -0.00957272 1.58715 0 0.04 0.999903 -0.101463 -0.355431
169 3 7.6 0.2 0 0 0 0 5.69562e-06 1.58717 0 0.04 0.999903 -0.0976333 -0.355426
298 3 7.4 0.4 0 0 0 0 -0.00955164 0.291988 0 0.04 0.999903 -0.0157447 -0.0963862
299 3 7.6 0.4 0 0 0 0 6.47392e-06 0.29196 0 0.04 0.999903 -0.0119217 -0.0963816
40 3 7.8 0 0 0 0 0 0.00954459 1.00276 0 0.04 0.999903 -0.289465 -0.296985
41 3 8 0 0 0 0 0 -0.00951286 1.00275 0 0.04 0.999903 -0.289469 -0.296984
170 3 7.8 0.2 0 0 0 0 0.00953833 1.58718 0 0.04 0.999903 -0.101454 -0.355425
171 3 8 0.2 0 0 0 0 -0.00956863 1.58718 0 0.04 0.999903 -0.10146 -0.355427
300 3 7.8 0.4 0 0 0 0 0.00958076 0.291961 0 0.04 0.999903 -0.015743 -0.0963848
301 3 8 0.4 0 0 0 0 -0.00959607 0.29195 0 0.04 0.999903 -0.015746 -0.0963851
42 3 8.2 0 0 0 0 0 0.00958856 1.00273 0 0.04 0.999903 -0.289461 -0.296981
43 3 8.4 0 0 0 0 0 -0.00960419 1.00275 0 0.04 0.999903 -0.289465 -0.296985
44 3 8.6 0 0 0 0 0 -0.00958279 1.00276 0 0.04 0.999903 -0.289466 -0.296982
172 3 8.2 0.2 0 0 0 0 0.00956268 1.58717 0 0.04 0.999903 -0.101456 -0.355424
173 3 8.4 0.2 0 0 0 0 -0.00954207 1.58714 0 0.04 0.999903 -0.101456 -0.355422
174 3 8.6 0.2 0 0 0 0 -0.00954757 1.58716 0 0.04 0.999903 -0.101456 -0.35542
302 3 8.2 0.4 0 0 0 0 0.00956374 0.291949 0 0.04 0.999903 -0.0157502 -0.0963826
303 3 8.4 0.4 0 0 0 0 -0.00957204 0.291941 0 0.04 0.999903 -0.0157438 -0.0963833
304 3 8.6 0.4 0 0 0 0 -0.00954892 0.291959 0 0.04 0.999903 -0.0157501 -0.0963861
45 3 8.8 0 0 0 0 0 -3.50964e-05 1.00272 0 0.04 0.999903 -0.293297 -0.29699
46 3 9 0 0 0 0 0 -0.00956566 1.00274 0 0.04 0.999903 -0.289469 -0.296985
175 3 8.8 0.2 0 0 0 0 -1.79225e-05 1.58718 0 0.04 0.999903 -0.105273 -0.355422
176 3 9 0.2 0 0 0 0 -0.00955014 1.58718 0 0.04 0.999903 -0.101454 -0.35542
305 3 8.8 0.4 0 0 0 0 1.53136e-05 0.291995 0 0.04 0.999903 -0.0195681 -0.0963841
306 3 9 0.4 0 0 0 0 -0.00955826 0.291958 0 0.04 0.999903 -0.0157478 -0.096385
47 3 9.2 0 0 0 0 0 0.00956289 1.00271 0 0.04 0.999903 -0.289467 -0.296983
48 3 9.4 0 0 0 0 0 2.94012e-05 1.0027 0 0.04 0.999903 -0.293289 -0.296981
49 3 9.6 0 0 0 0 0 0.00954062 1.00275 0 0.04 0.999903 -0.289467 -0.296987
177 3 9.2 0.2 0 0 0 0 0.00957405 1.5872 0 0.04 0.999903 -0.101461 -0.355428
178 3 9.4 0.2 0 0 0 0 -9.52417e-06 1.58717 0 0.04 0.999903 -0.105277 -0.355423
179 3 9.6 0.2 0 0 0 0 0.00960098 1.58713 0 0.04 0.999903 -0.101453 -0.355427
307 3 9.2 0.4 0 0 0 0 0.00954286 0.291936 0 0.04 0.999903 -0.0157448 -0.0963897
308 3 9.4 0.4 0 0 0 0 1.27884e-05 0.291968 0 0.04 0.999903 -0.0195698 -0.0963835
309 3 9.6 0.4 0 0 0 0 0.00957477 0.291952 0 0.04 0.999903 -0.0157483 -0.0963891
50 3 9.8 0 0 0 0 0 9.02017e-06 1.00275 0 0.04 0.999903 -0.293288 -0.296975
51 3 10 0 0 0 0 0 -0.00960346 1.00269 0 0.04 0.999903 -0.289468 -0.296984
180 3 9.8 0.2 0 0 0 0 4.44308e-05 1.58718 0 0.04 0.999903 -0.105282 -0.355429
181 3 10 0.2 0 0 0 0 -0.00960639 1.58718 0 0.04 0.999903 -0.101456 -0.355422
310 3 9.8 0.4 0 0 0 0 -7.86169e-06 0.291932 0 0.04 0.999903 -0.0195625 -0.0963829
311 3 10 0.4 0 0 0 0 -0.00957702 0.291935 0 0.04 0.999903 -0.015745 -0.096385
52 3 10.2 0 0 0 0 0 0.00957142 1.00273 0 0.04 0.999903 -0.289466 -0.296986
53 3 10.4 0 0 0 0 0 -0.00959568 1.00271 0 0.04 0.999903 -0.289479 -0.296982
182 3 10.2 0.2 0 0 0 0 0.00956298 1.58719 0 0.04 0.999903 -0.101456 -0.355423
183 3 10.4 0.2 0 0 0 0 -0.0095387 1.58716 0 0.04 0.999903 -0.101463 -0.355434
312 3 10.2 0.4 0 0 0 0 0.00954596 0.291938 0 0.04 0.999903 -0.0157432 -0.0963891
313 3 10.4 0.4 0 0 0 0 -0.00953857 0.291943 0 0.04 0.999903 -0.015745 -0.0963872
54 3 10.6 0 0 0 0 0 0.00956222 1.00272 0 0.04 0.999903 -0.289466 -0.296984
55 3 10.8 0 0 0 0 0 4.95791e-05 1.00274 0 0.04 0.999903 -0.293294 -0.296985
56 3 11 0 0 0 0 0 -0.00955683 1.00275 0 0.04 0.999903 -0.289468 -0.296985
184 3 10.6 0.2 0 0 0 0 0.00956554 1.58716 0 0.04 0.999903 -0.101455 -0.355421
185 3 10.8 0.2 0 0 0 0 1.44436e-05 1.58718 0 0.04 0.999903 -0.105283 -0.35543
186 3 11 0.2 0 0 0 0 -0.00958651 1.58715 0 0.04 0.999903 -0.101454 -0.355432
314 3 10.6 0.4 0 0 0 0 0.00952785 0.291949 0 0.04 0.999903 -0.0157416 -0.0963837
315 3 10.8 0.4 0 0 0 0 2.979e-05 0.2919 0 0.04 0.999903 -0.0195645 -0.096382
316 3 11 0.4 0 0 0 0 -0.00953316 0.291957 0 0.04 0.999903 -0.0157451 -0.096388
57 3 11.2 0 0 0 0 0 0.00953788 1.00273 0 0.04 0.999903 -0.28947 -0.296977
58 3 11.4 0 0 0 0 0 -0.00953935 1.00276 0 0.04 0.999903 -0.28947 -0.296979
187 3 11.2 0.2 0 0 0 0 0.00952594 1.58715 0 0.04 0.999903 -0.101455 -0.355425
188 3 11.4 0.2 0 0 0 0 -0.00954599 1.58712 0 0.04 0.999903 -0.101454 -0.355429
317 3 11.2 0.4 0 0 0 0 0.00954699 0.291953 0 0.04 0.999903 -0.0157442 -0.0963849
318 3 11.4 0.4 0 0 0 0 -0.00957455 0.291968 0 0.04 0.999903 -0.0157417 -0.0963845
59 3 11.6 0 0 0 0 0 0.00952662 1.0027 0 0.04 0.999903 -0.289469 -0.296978
60 3 11.8 0 0 0 0 0 -1.67646e-05 1.00274 0 0.04 0.999903 -0.293296 -0.296979
61 3 12 0 0 0 0 0 -0.00956768 1.00274 0 0.04 0.999903 -0.289469 -0.296984
189 3 11.6 0.2 0 0 0 0 0.00954998 1.58716 0 0.04 0.999903 -0.101459 -0.355432
190 3 11.8 0.2 0 0 0 0 -3.50226e-05 1.58719 0 0.04 0.999903 -0.105283 -0.355433
191 3 12 0.2 0 0 0 0 -0.00955336 1.58712 0 0.04 0.999903 -0.101462 -0.355428
319 3 11.6 0.4 0 0 0 0 0.00956065 0.291932 0 0.04 0.999903 -0.015741 -0.0963849
320 3 11.8 0.4 0 0 0 0 2.22726e-05 0.291928 0 0.04 0.999903 -0.0195678 -0.0963823
321 3 12 0.4 0 0 0 0 -0.0095613 0.292008 0 0.04 0.999903 -0.0157445 -0.0963846
62 3 12.2 0 0 0 0 0 0.0095734 1.00271 0 0.04 0.999903 -0.28947 -0.296981
63 3 12.4 0 0 0 0 0 -0.0095691 1.00273 0 0.04 0.999903 -0.289471 -0.296981
192 3 12.2 0.2 0 0 0 0 0.00953429 1.58719 0 0.04 0.999903 -0.101455 -0.355423
193 3 12.4 0.2 0 0 0 0 -0.00956351 1.58716 0 0.04 0.999903 -0.101459 -0.355427
322 3 12.2 0.4 0 0 0 0 0.00954374 0.291947 0 0.04 0.999903 -0.0157423 -0.0963864
323 3 12.4 0.4 0 0 0 0 -0.00952196 0.291975 0 0.04 0.999903 -0.0157484 -0.0963834
64 3 12.6 0 0 0 0 0 0.00955289 1.0027 0 0.04 0.999903 -0.289474 -0.296986
65 3 12.8 0 0 0 0 0 5.10396e-07 1.0027 0 0.04 0.999903 -0.29329 -0.296985
194 3 12.6 0.2 0 0 0 0 0.00955953 1.58718 0 0.04 0.999903 -0.101454 -0.355433
195 3 12.8 0.2 0 0 0 0 -1.04308e-05 1.58716 0 0.04 0.999903 -0.105283 -0.355431
324 3 12.6 0.4 0 0 0 0 0.00955828 0.291926 0 0.04 0.999903 -0.0157406 -0.0963863
325 3 12.8 0.4 0 0 0 0 -4.64176e-05 0.291975 0 0.04 0.999903 -0.0195651 -0.0963836
66 3 13 0 0 0 0 0 -0.00957427 1.0027 0 0.04 0.999903 -0.289471 -0.296989
67 3 13.2 0 0 0 0 0 0.00955546 1.00275 0 0.04 0.999903 -0.289466 -0.296976
68 3 13.4 0 0 0 0 0 -0.00957093 1.00271 0 0.04 0.999903 -0.289465 -0.296979
196 3 13 0.2 0 0 0 0 -0.00956989 1.5872 0 0.04 0.999903 -0.101458 -0.355428
197 3 13.2 0.2 0 0 0 0 0.00956943 1.58714 0 0.04 0.999903 -0.101461 -0.355424
198 3 13.4 0.2 0 0 0 0 -0.00956678 1.58714 0 0.04 0.999903 -0.101456 -0.355425
326 3 13 0.4 0 0 0 0 -0.00953384 0.291934 0 0.04 0.999903 -0.0157444 -0.0963866
327 3 13.2 0.4 0 0 0 0 0.00957069 0.292005 0 0.04 0.999903 -0.0157512 -0.0963918
328 3 13.4 0.4 0 0 0 0 -0.00954593 0.291964 0 0.04 0.999903 -0.0157457 -0.0963863
69 3 13.6 0 0 0 0 0 0.00955216 1.00274 0 0.04 0.999903 -0.28947 -0.296979
70 3 13.8 0 0 0 0 0 -5.26111e-06 1.00273 0 0.04 0.999903 -0.293289 -0.296984
199 3 13.6 0.2 0 0 0 0 0.00956142 1.58716 0 0.04 0.999903 -0.101455 -0.355424
200 3 13.8 0.2 0 0 0 0 -9.81205e-06 1.58719 0 0.04 0.999903 -0.105283 -0.35543
329 3 13.6 0.4 0 0 0 0 0.00957736 0.291939 0 0.04 0.999903 -0.015739 -0.0963877
330 3 13.8 0.4 0 0 0 0 -1.98545e-06 0.291935 0 0.04 0.999903 -0.019569 -0.0963842
71 3 14 0 0 0 0 0 -0.00956064 1.00276 0 0.04 0.999903 -0.289466 -0.296985
72 3 14.2 0 0 0 0 0 0.00955979 1.00273 0 0.04 0.999903 -0.289476 -0.296983
73 3 14.4 0 0 0 0 0 -0.00957429 1.00271 0 0.04 0.999903 -0.289472 -0.296986
201 3 14 0.2 0 0 0 0 -0.00955679 1.58721 0 0.04 0.999903 -0.101456 -0.355424
202 3 14.2 0.2 0 0 0 0 0.0095428 1.58717 0 0.04 0.999903 -0.101462 -0.355426
203 3 14.4 0.2 0 0 0 0 -0.00952583 1.58713 0 0.04 0.999903 -0.101454 -0.35543
331 3 14 0.4 0 0 0 0 -0.00957195 0.291957 0 0.04 0.999903 -0.0157439 -0.0963804
332 3 14.2 0.4 0 0 0 0 0.00953538 0.291965 0 0.04 0.999903 -0.0157429 -0.0963885
333 3 14.4 0.4 0 0 0 0 -0.00959437 0.291997 0 0.04 0.999903 -0.0157457 -0.096389
74 3 14.6 0 0 0 0 0 0.00956637 1.00273 0 0.04 0.999903 -0.289473 -0.296979
75 3 14.8 0 0 0 0 0 3.62674e-07 1.00271 0 0.04 0.999903 -0.293291 -0.296978
204 3 14.6 0.2 0 0 0 0 0.00957738 1.58711 0 0.04 0.999903 -0.101455 -0.355424
205 3 14.8 0.2 0 0 0 0 -9.70084e-07 1.58718 0 0.04 0.999903 -0.105286 -0.355427
334 3 14.6 0.4 0 0 0 0 0.0095608 0.291957 0 0.04 0.999903 -0.0157415 -0.0963831
335 3 14.8 0.4 0 0 0 0 -2.70694e-06 0.291957 0 0.04 0.999903 -0.0195686 -0.0963882
76 3 15 0 0 0 0 0 -0.00955529 1.00273 0 0.04 0.999903 -0.289466 -0.296979
77 3 15.2 0 0 0 0 0 0.00954366 1.00272 0 0.04 0.999903 -0.289468 -0.296991
78 3 15.4 0 0 0 0 0 8.03658e-06 1.00272 0 0.04 0.999903 -0.28565 -0.296991
206 3 15 0.2 0 0 0 0 -0.00958199 1.5872 0 0.04 0.999903 -0.101463 -0.355425
207 3 15.2 0.2 0 0 0 0 0.0095234 1.58717 0 0.04 0.999903 -0.101456 -0.355429
208 3 15.4 0.2 0 0 0 0 1.06377e-05 1.58717 0 0.04 0.999903 -0.0976379 -0.355425
336 3 15 0.4 0 0 0 0 -0.00953831 0.291966 0 0.04 0.999903 -0.0157425 -0.0963857
337 3 15.2 0.4 0 0 0 0 0.00951154 0.291946 0 0.04 0.999903 -0.0157469 -0.0963848
338 3 15.4 0.4 0 0 0 0 1.54416e-05 0.291981 0 0.04 0.999903 -0.0119308 -0.0963915
79 3 15.6 0 0 0 0 0 -1.92752e-06 1.00274 0 0.04 0.999903 -0.293291 -0.29698
80 3 15.8 0 0 0 0 0 -4.55918e-05 1.0027 0 0.04 0.999903 -0.293296 -0.296982
209 3 15.6 0.2 0 0 0 0 2.2444e-05 1.58716 0 0.04 0.999903 -0.105283 -0.35543
210 3 15.8 0.2 0 0 0 0 -1.35626e-05 1.58716 0 0.04 0.999903 -0.105282 -0.355428
339 3 15.6 0.4 0 0 0 0 3.88799e-05 0.291904 0 0.04 0.999903 -0.0195663 -0.096386
340 3 15.8 0.4 0 0 0 0 -3.46807e-05 0.291971 0 0.04 0.999903 -0.0195636 -0.096385
81 3 16 0 0 0 0 0 -0.00959115 1.00271 0 0.04 0.999903 -0.289471 -0.296979
82 3 16.2 0 0 0 0 0 -0.00953557 1.00272 0 0.04 0.999903 -0.289469 -0.296986
211 3 16 0.2 0 0 0 0 -0.00955467 1.5872 0 0.04 0.999903 -0.101457 -0.355425
212 3 16.2 0.2 0 0 0 0 -0.0095634 1.5872 0 0.04 0.999903 -0.10146 -0.355431
341 3 16 0.4 0 0 0 0 -0.00955635 0.291956 0 0.04 0.999903 -0.0157433 -0.0963818
342 3 16.2 0.4 0 0 0 0 -0.00953399 0.291956 0 0.04 0.999903 -0.0157469 -0.0963862
83 3 16.4 0 0 0 0 0 0.00957638 1.0027 0 0.04 0.999903 -0.289472 -0.296988
84 3 16.6 0 0 0 0 0 1.99257e-05 1.00272 0 0.04 0.999903 -0.293292 -0.296989
85 3 16.8 0 0 0 0 0 -6.80909e-07 1.00271 0 0.04 0.999903 -0.293285 -0.296978
213 3 16.4 0.2 0 0 0 0 0.00955728 1.58715 0 0.04 0.999903 -0.101456 -0.355428
214 3 16.6 0.2 0 0 0 0 6.90066e-06 1.58717 0 0.04 0.999903 -0.105282 -0.355425
215 3 16.8 0.2 0 0 0 0 -2.59755e-05 1.58717 0 0.04 0.999903 -0.105284 -0.355433
343 3 16.4 0.4 0 0 0 0 0.00956931 0.291961 0 0.04 0.999903 -0.0157448 -0.0963843
344 3 16.6 0.4 0 0 0 0 -1.85691e-05 0.291973 0 0.04 0.999903 -0.0195642 -0.0963832
345 3 16.8 0.4 0 0 0 0 -1.08646e-05 0.291921 0 0.04 0.999903 -0.0195717 -0.0963828
86 3 17 0 0 0 0 0 -9.1499e-06 1.00273 0 0.04 0.999903 -0.293291 -0.296982
87 3 17.2 0 0 0 0 0 -0.00956884 1.00278 0 0.04 0.999903 -0.289471 -0.296985
216 3 17 0.2 0 0 0 0 1.20645e-05 1.58717 0 0.04 0.999903 -0.105283 -0.355419
217 3 17.2 0.2 0 0 0 0 -0.00955603 1.58715 0 0.04 0.999903 -0.101457 -0.355426
346 3 17 0.4 0 0 0 0 1.27241e-05 0.29193 0 0.04 0.999903 -0.0195653 -0.0963846
347 3 17.2 0.4 0 0 0 0 -0.0095301 0.291958 0 0.04 0.999903 -0.0157448 -0.0963879
88 3 17.4 0 0 0 0 0 0.00954959 1.0027 0 0.04 0.999903 -0.289467 -0.296986
89 3 17.6 0 0 0 0 0 -3.35764e-05 1.00271 0 0.04 0.999903 -0.293295 -0.296985
90 3 17.8 0 0 0 0 0 -1.0302e-05 1.00269 0 0.04 0.999903 -0.293291 -0.296983
218 3 17.4 0.2 0 0 0 0 0.00952444 1.58717 0 0.04 0.999903 -0.101461 -0.355426
219 3 17.6 0.2 0 0 0 0 6.86919e-06 1.58715 0 0.04 0.999903 -0.105281 -0.355423
220 3 17.8 0.2 0 0 0 0 -5.57218e-06 1.58717 0 0.04 0.999903 -0.105284 -0.355426
348 3 17.4 0.4 0 0 0 0 0.009543 0.291934 0 0.04 0.999903 -0.0157421 -0.0963854
349 3 17.6 0.4 0 0 0 0 5.25413e-05 0.291953 0 0.04 0.999903 -0.0195644 -0.0963821
350 3 17.8 0.4 0 0 0 0 6.49979e-06 0.29199 0 0.04 0.999903 -0.0195647 -0.0963859
91 3 18 0 0 0 0 0 2.20175e-05 1.00273 0 0.04 0.999903 -0.293289 -0.296988
92 3 18.2 0 0 0 0 0 -0.00956333 1.00272 0 0.04 0.999903 -0.28947 -0.296987
221 3 18 0.2 0 0 0 0 -8.88194e-06 1.58718 0 0.04 0.999903 -0.105279 -0.35543
222 3 18.2 0.2 0 0 0 0 -0.00958882 1.58714 0 0.04 0.999903 -0.101455 -0.355424
351 3 18 0.4 0 0 0 0 -2.36961e-05 0.291969 0 0.04 0.999903 -0.0195674 -0.096384
352 3 18.2 0.4 0 0 0 0 -0.00954157 0.29196 0 0.04 0.999903 -0.0157469 -0.096392
93 3 18.4 0 0 0 0 0 -2.0754e-05 1.00277 0 0.04 0.999903 -0.29329 -0.296983
94 3 18.6 0 0 0 0 0 9.20811e-06 1.00274 0 0.04 0.999903 -0.293297 -0.29699
223 3 18.4 0.2 0 0 0 0 2.26791e-05 1.5872 0 0.04 0.999903 -0.105285 -0.355422
224 3 18.6 0.2 0 0 0 0 -6.04468e-06 1.58715 0 0.04 0.999903 -0.105277 -0.355421
353 3 18.4 0.4 0 0 0 0 -3.71126e-05 0.29196 0 0.04 0.999903 -0.0195677 -0.0963834
354 3 18.6 0.4 0 0 0 0 6.93803e-06 0.29193 0 0.04 0.999903 -0.0195662 -0.0963886
95 3 18.8 0 0 0 0 0 -6.25923e-06 1.00273 0 0.04 0.999903 -0.293293 -0.296985
96 3 19 0 0 0 0 0 1.69523e-05 1.00271 0 0.04 0.999903 -0.29329 -0.296978
97 3 19.2 0 0 0 0 0 0.00956218 1.00273 0 0.04 0.999903 -0.289465 -0.29698
225 3 18.8 0.2 0 0 0 0 -2.32169e-05 1.58714 0 0.04 0.999903 -0.105281 -0.355428
226 3 19 0.2 0 0 0 0 9.90347e-06 1.58715 0 0.04 0.999903 -0.105277 -0.355422
227 3 19.2 0.2 0 0 0 0 0.00953595 1.58717 0 0.04 0.999903 -0.101455 -0.35543
355 3 18.8 0.4 0 0 0 0 1.31711e-06 0.291951 0 0.04 0.999903 -0.0195721 -0.096383
356 3 19 0.4 0 0 0 0 1.34513e-05 0.291963 0 0.04 0.999903 -0.0195726 -0.0963866
357 3 19.2 0.4 0 0 0 0 0.0095589 0.291978 0 0.04 0.999903 -0.0157506 -0.0963862
98 3 19.4 0 0 0 0 0 -9.42432e-06 1.00274 0 0.04 0.999903 -0.293292 -0.296987
99 3 19.6 0 0 0 0 0 9.96852e-07 1.00272 0 0.04 0.999903 -0.293291 -0.296976
228 3 19.4 0.2 0 0 0 0 -1.65235e-05 1.58716 0 0.04 0.999903 -0.105279 -0.355426
229 3 19.6 0.2 0 0 0 0 -5.56325e-07 1.58716 0 0.04 0.999903 -0.105279 -0.355425
358 3 19.4 0.4 0 0 0 0 2.21591e-05 0.291979 0 0.04 0.999903 -0.0195628 -0.0963799
359 3 19.6 0.4 0 0 0 0 -1.23045e-05 0.29195 0 0.04 0.999903 -0.0195717 -0.0963876
100 3 19.8 0 0 0 0 0 3.17473e-05 1.0027 0 0.04 0.999903 -0.293288 -0.296976
101 3 20 0 0 0 0 0 -0.00955079 1.00277 0 0.04 0.999903 -0.289469 -0.296984
102 3 20.2 0 0 0 0 0 0.00952451 1.00274 0 0.04 0.999903 -0.289468 -0.29699
230 3 19.8 0.2 0 0 0 0 -1.18127e-05 1.5872 0 0.04 0.999903 -0.105276 -0.355423
231 3 20 0.2 0 0 0 0 -0.0095681 1.58714 0 0.04 0.999903 -0.101454 -0.355426
232 3 20.2 0.2 0 0 0 0 0.0095251 1.58717 0 0.04 0.999903 -0.101458 -0.355427
360 3 19.8 0.4 0 0 0 0 7.37724e-06 0.291938 0 0.04 0.999903 -0.0195626 -0.0963825
361 3 20 0.4 0 0 0 0 -0.0095561 0.291958 0 0.04 0.999903 -0.0157383 -0.0963791
362 3 20.2 0.4 0 0 0 0 0.00956842 0.291954 0 0.04 0.999903 -0.0157435 -0.0963852
103 3 20.4 0 0 0 0 0 -4.87047e-06 1.00277 0 0.04 0.999903 -0.293294 -0.296984
104 3 20.6 0 0 0 0 0 -2.3836e-05 1.00274 0 0.04 0.999903 -0.293287 -0.296979
233 3 20.4 0.2 0 0 0 0 8.76825e-06 1.58712 0 0.04 0.999903 -0.105278 -0.355427
234 3 20.6 0.2 0 0 0 0 7.93208e-06 1.58715 0 0.04 0.999903 -0.10528 -0.355426
363 3 20.4 0.4 0 0 0 0 -7.52561e-06 0.291988 0 0.04 0.999903 -0.0195633 -0.0963819
364 3 20.6 0.4 0 0 0 0 2.59613e-05 0.291953 0 0.04 0.999903 -0.0195726 -0.0963883
105 3 20.8 0 0 0 0 0 1.66683e-05 1.00274 0 0.04 0.999903 -0.293288 -0.296983
106 3 21 0 0 0 0 0 -0.00955557 1.00274 0 0.04 0.999903 -0.289469 -0.296987
235 3 20.8 0.2 0 0 0 0 -8.65038e-06 1.58719 0 0.04 0.999903 -0.105281 -0.355424
236 3 21 0.2 0 0 0 0 -0.0095697 1.58714 0 0.04 0.999903 -0.101454 -0.355429
365 3 20.8 0.4 0 0 0 0 2.73548e-05 0.291914 0 0.04 0.999903 -0.0195642 -0.0963891
366 3 21 0.4 0 0 0 0 -0.00960037 0.291936 0 0.04 0.999903 -0.0157446 -0.0963847
107 3 21.2 0 0 0 0 0 0.00951679 1.00277 0 0.04 0.999903 -0.289463 -0.296983
108 3 21.4 0 0 0 0 0 -3.90886e-05 1.00273 0 0.04 0.999903 -0.293293 -0.296981
109 3 21.6 0 0 0 0 0 3.01733e-05 1.00272 0 0.04 0.999903 -0.293298 -0.296988
237 3 21.2 0.2 0 0 0 0 0.00953912 1.5872 0 0.04 0.999903 -0.101462 -0.355424
238 3 21.4 0.2 0 0 0 0 1.82354e-05 1.58719 0 0.04 0.999903 -0.105284 -0.355433
239 3 21.6 0.2 0 0 0 0 1.91848e-05 1.58717 0 0.04 0.999903 -0.105284 -0.355425
367 3 21.2 0.4 0 0 0 0 0.00956117 0.291943 0 0.04 0.999903 -0.0157433 -0.0963789
368 3 21.4 0.4 0 0 0 0 2.30088e-05 0.291962 0 0.04 0.999903 -0.0195588 -0.0963834
369 3 21.6 0.4 0 0 0 0 -1.25123e-05 0.292001 0 0.04 0.999903 -0.0195633 -0.0963835
110 3 21.8 0 0 0 0 0 -2.68508e-05 1.00265 0 0.04 0.999903 -0.29329 -0.296989
111 3 22 0 0 0 0 0 -0.00957028 1.00275 0 0.04 0.999903 -0.289461 -0.296982
240 3 21.8 0.2 0 0 0 0 -5.42694e-05 1.58717 0 0.04 0.999903 -0.105283 -0.355426
241 3 22 0.2 0 0 0 0 -0.00957267 1.58718 0 0.04 0.999903 -0.10146 -0.355425
370 3 21.8 0.4 0 0 0 0 2.89847e-06 0.291979 0 0.04 0.999903 -0.0195675 -0.0963885
371 3 22 0.4 0 0 0 0 -0.00956696 0.291983 0 0.04 0.999903 -0.0157426 -0.0963885
112 3 22.2 0 0 0 0 0 0.00958481 1.00271 0 0.04 0.999903 -0.289469 -0.296982
113 3 22.4 0 0 0 0 0 -1.53779e-05 1.00275 0 0.04 0.999903 -0.293291 -0.29698
114 3 22.6 0 0 0 0 0 -1.86503e-06 1.00269 0 0.04 0.999903 -0.293297 -0.296993
242 3 22.2 0.2 0 0 0 0 0.0095761 1.58713 0 0.04 0.999903 -0.101458 -0.355424
243 3 22.4 0.2 0 0 0 0 -2.78136e-06 1.58712 0 0.04 0.999903 -0.10528 -0.355424
244 3 22.6 0.2 0 0 0 0 -1.15774e-05 1.58718 0 0.04 0.999903 -0.105282 -0.355432
372 3 22.2 0.4 0 0 0 0 0.00955286 0.291975 0 0.04 0.999903 -0.0157508 -0.0963917
373 3 22.4 0.4 0 0 0 0 -1.01205e-05 0.291985 0 0.04 0.999903 -0.0195688 -0.0963818
374 3 22.6 0.4 0 0 0 0 5.65916e-06 0.29195 0 0.04 0.999903 -0.0195631 -0.096392
115 3 22.8 0 0 0 0 0 1.31973e-05 1.00276 0 0.04 0.999903 -0.293295 -0.296979
116 3 23 0 0 0 0 0 -0.0095523 1.00269 0 0.04 0.999903 -0.289471 -0.296988
245 3 22.8 0.2 0 0 0 0 5.42013e-06 1.58714 0 0.04 0.999903 -0.105284 -0.355425
246 3 23 0.2 0 0 0 0 -0.00958585 1.58715 0 0.04 0.999903 -0.101461 -0.355432
375 3 22.8 0.4 0 0 0 0 -1.10775e-05 0.291968 0 0.04 0.999903 -0.0195649 -0.0963866
376 3 23 0.4 0 0 0 0 -0.0095586 0.291968 0 0.04 0.999903 -0.0157446 -0.0963893
117 3 23.2 0 0 0 0 0 0.0095584 1.00272 0 0.04 0.999903 -0.289471 -0.296979
118 3 23.4 0 0 0 0 0 3.39049e-06 1.00273 0 0.04 0.999903 -0.293289 -0.296987
247 3 23.2 0.2 0 0 0 0 0.00957591 1.58718 0 0.04 0.999903 -0.101459 -0.355425
248 3 23.4 0.2 0 0 0 0 1.64486e-05 1.58716 0 0.04 0.999903 -0.105287 -0.35543
377 3 23.2 0.4 0 0 0 0 0.00955667 0.291957 0 0.04 0.999903 -0.0157434 -0.0963807
378 3 23.4 0.4 0 0 0 0 -2.1643e-05 0.291989 0 0.04 0.999903 -0.0195715 -0.0963833
119 3 23.6 0 0 0 0 0 -3.32769e-05 1.00275 0 0.04 0.999903 -0.293297 -0.296988
120 3 23.8 0 0 0 0 0 -2.87744e-05 1.00273 0 0.04 0.999903 -0.29329 -0.296982
121 3 24 0 0 0 0 0 -0.00954545 1.00273 0 0.04 0.999903 -0.289467 -0.296985
249 3 23.6 0.2 0 0 0 0 3.22157e-05 1.58713 0 0.04 0.999903 -0.105284 -0.355428
250 3 23.8 0.2 0 0 0 0 3.05502e-05 1.58717 0 0.04 0.999903 -0.105279 -0.355421
251 3 24 0.2 0 0 0 0 -0.00956096 1.58716 0 0.04 0.999903 -0.101459 -0.355431
379 3 23.6 0.4 0 0 0 0 6.01524e-06 0.291994 0 0.04 0.999903 -0.0195603 -0.0963795
380 3 23.8 0.4 0 0 0 0 4.30153e-05 0.291932 0 0.04 0.999903 -0.0195711 -0.0963851
381 3 24 0.4 0 0 0 0 -0.00951779 0.291962 0 0.04 0.999903 -0.0157405 -0.0963862
122 3 24.2 0 0 0 0 0 0.00956291 1.00271 0 0.04 0.999903 -0.289467 -0.296987
123 3 24.4 0 0 0 0 0 -8.20404e-06 1.00272 0 0.04 0.999903 -0.2933 -0.296985
252 3 24.2 0.2 0 0 0 0 0.00951083 1.58715 0 0.04 0.999903 -0.101451 -0.355428
253 3 24.4 0.2 0 0 0 0 1.50611e-05 1.58711 0 0.04 0.999903 -0.105282 -0.355423
382 3 24.2 0.4 0 0 0 0 0.00954299 0.291954 0 0.04 0.999903 -0.015744 -0.0963901
383 3 24.4 0.4 0 0 0 0 6.82272e-06 0.291944 0 0.04 0.999903 -0.0195671 -0.0963888
124 3 24.6 0 0 0 0 0 -6.94996e-06 1.00273 0 0.04 0.999903 -0.293288 -0.296981
125 3 24.8 0 0 0 0 0 3.50133e-06 1.00277 0 0.04 0.999903 -0.293294 -0.296982
126 3 25 0 0 0 0 0 -0.00955298 1.00274 0 0.04 0.999903 -0.28947 -0.296983
254 3 24.6 0.2 0 0 0 0 -4.96775e-05 1.58716 0 0.04 0.999903 -0.105279 -0.355422
255 3 24.8 0.2 0 0 0 0 1.86802e-05 1.58717 0 0.04 0.999903 -0.105283 -0.355422
256 3 25 0.2 0 0 0 0 -0.00957399 1.58715 0 0.04 0.999903 -0.101456 -0.355423
384 3 24.6 0.4 0 0 0 0 1.24094e-05 0.291953 0 0.04 0.999903 -0.0195705 -0.0963859
385 3 24.8 0.4 0 0 0 0 1.35738e-05 0.291954 0 0.04 0.999903 -0.0195717 -0.096382
386 3 25 0.4 0 0 0 0 -0.00955129 0.291966 0 0.04 0.999903 -0.0157458 -0.0963839
127 3 25.2 0 0 0 0 0 0.00954552 1.00272 0 0.04 0.999903 -0.289465 -0.296986
128 3 25.4 0 0 0 0 0 0.0095507 1.00274 0 0.04 0.999903 -0.289473 -0.29698
257 3 25.2 0.2 0 0 0 0 0.00958566 1.58715 0 0.04 0.999903 -0.101453 -0.355426