ITEM: TIMESTEP
20000
ITEM: NUMBER OF ATOMS
3000
ITEM: BOX BOUNDS pp pp pp
0.0000000000000000e+00 1.2000000000000000e+01
0.0000000000000000e+00 1.0000000000000000e+01
0.0000000000000000e+00 2.0000000000000001e-01
ITEM: ATOMS id type x y z vx vy vz fx fy fz mass c_density c_peratom[1] c_peratom[2]
1 2 0 0 0 -6.31993e-06 -6.9456e-06 0 -0.00505676 -0.00555057 0 0.04 0.999903 -0.00178795 -0.00204282
2 2 0.2 0 0 -6.56205e-06 -7.48545e-06 0 -0.00525001 -0.00598667 0 0.04 0.999903 -0.00180041 -0.00221799
3 2 0.4 0 0 -6.46688e-06 -8.2392e-06 0 -0.00517308 -0.00658765 0 0.04 0.999903 -0.00181071 -0.00241376
7 2 0 0.2 0 -6.92669e-06 -1.26671e-05 0 -0.00554451 -0.0101359 0 0.04 0.999903 -0.00217961 -0.00299754
8 2 0.2 0.2 0 -7.88653e-06 -1.40987e-05 0 -0.0063066 -0.011283 0 0.04 0.999903 -0.00218961 -0.00320856
9 2 0.4 0.2 0 -7.68054e-06 -9.87491e-06 0 -0.00613913 -0.00791018 0 0.04 0.999903 -0.00219692 -0.00154595
13 2 0 0.4 0 -7.71841e-06 -2.36907e-05 0 -0.00618127 -0.0189419 0 0.04 0.999891 -0.00329776 -0.00443353
14 2 0.2 0.4 0 -9.93253e-06 -2.4998e-05 0 -0.00794262 -0.019986 0 0.04 0.999941 -0.0036424 -0.00496091
15 2 0.4 0.4 0 -9.61174e-06 -2.06573e-05 0 -0.00768133 -0.0165205 0 0.04 1.00001 -0.00413898 -0.00373353
4 2 0.6 0 0 -6.07295e-06 -8.69704e-06 0 -0.00485525 -0.00695218 0 0.04 0.999903 -0.00181429 -0.00251993
5 2 0.8 0 0 3.29269e-07 -8.56876e-06 0 0.000257866 -0.00684974 0 0.04 0.999903 -0.00372989 -0.00248182
6 2 1 0 0 4.97195e-07 -8.00165e-06 0 0.000399163 -0.00639463 0 0.04 0.999903 -0.00372791 -0.00233792
10 2 0.6 0.2 0 -6.39885e-06 -1.10103e-05 0 -0.00511328 -0.00881645 0 0.04 0.999903 -0.00220182 -0.00172243
11 2 0.8 0.2 0 9.97542e-07 -1.07781e-05 0 0.000791533 -0.00863165 0 0.04 0.999903 -0.00413939 -0.00169328
12 2 1 0.2 0 1.56514e-06 -9.64921e-06 0 0.00125491 -0.00772841 0 0.04 0.999903 -0.00416273 -0.00154504
16 2 0.6 0.4 0 -7.09697e-06 -2.18837e-05 0 -0.00567068 -0.0174984 0 0.04 1.00006 -0.00447789 -0.00422472
17 2 0.8 0.4 0 1.75722e-06 -2.19448e-05 0 0.00139875 -0.0175487 0 0.04 1.00003 -0.0062677 -0.00404633
18 2 1 0.4 0 2.8619e-06 -2.72161e-05 0 0.00229702 -0.0217571 0 0.04 0.99997 -0.00592951 -0.00547624
19 2 0 0.6 0 -7.61237e-06 -3.14052e-05 0 -0.00609639 -0.0250974 0 0.04 1.00015 -0.00735315 -0.00704427
20 2 0.2 0.6 0 -1.09146e-05 -3.14682e-05 0 -0.00872794 -0.0251438 0 0.04 1.00025 -0.00801997 -0.00799406
21 2 0.4 0.6 0 -1.0801e-05 -2.67687e-05 0 -0.00863302 -0.0213955 0 0.04 1.00039 -0.00901131 -0.00747231
25 2 0 0.8 0 -6.01018e-06 -2.86023e-05 0 -0.00480922 -0.022853 0 0.04 1.00065 -0.0134295 -0.0138651
26 2 0.2 0.8 0 -1.29075e-05 -2.17898e-05 0 -0.0103118 -0.0174128 0 0.04 1.00072 -0.014444 -0.0141389
27 2 0.4 0.8 0 -1.35464e-05 -3.74888e-05 0 -0.0108202 -0.0299358 0 0.04 1.00084 -0.0146894 -0.0158428
33 1 0.397398 0.998537 0 -0.00113911 -0.000215984 0 0.0707405 -6.49029e-06 0 0.04 1.001 -0.0166574 -0.0165123
34 1 0.598796 0.998588 0 -0.00135853 0.000172432 0 0.0705408 1.53689e-05 0 0.04 1.00107 -0.0153385 -0.0177106
36 1 1.0003 0.999944 0 -0.00212059 0.000399846 0 0.0701969 -2.79632e-06 0 0.04 1.00102 -0.0189053 -0.0152281
22 2 0.6 0.6 0 -8.01307e-06 -2.7193e-05 0 -0.00640185 -0.0217342 0 0.04 1.0005 -0.00980145 -0.00842907
23 2 0.8 0.6 0 1.32937e-06 -2.75987e-05 0 0.00105906 -0.0220603 0 0.04 1.00045 -0.011503 -0.00808784
24 2 1 0.6 0 2.50046e-06 -3.34221e-05 0 0.00200967 -0.0267117 0 0.04 1.00034 -0.0108732 -0.00900379
28 2 0.6 0.8 0 -8.43236e-06 -2.97704e-05 0 -0.00673538 -0.0237805 0 0.04 1.00095 -0.0159186 -0.0147269
29 2 0.8 0.8 0 3.7282e-07 -3.71023e-05 0 0.000295941 -0.0296323 0 0.04 1.00091 -0.0174284 -0.0165097
30 2 1 0.8 0 2.81127e-06 -2.96206e-05 0 0.00225136 -0.0236724 0 0.04 1.00083 -0.0172643 -0.0155958
35 1 0.800249 0.998621 0 -0.00158828 -0.000111068 0 0.0703408 3.55762e-05 0 0.04 1.00105 -0.0172037 -0.0172804
38 1 0.199547 1.20274 0 0.000774309 0.00145157 0 0.0707257 -1.03825e-05 0 0.04 1.00084 -0.0160454 -0.0153253
39 1 0.398314 1.19823 0 -0.000392632 0.000246072 0 0.0705432 0.000144531 0 0.04 1.00087 -0.0149863 -0.0149349
43 1 0.00110446 1.40436 0 0.000376699 0.0015356 0 0.0708801 9.91785e-05 0 0.04 1.0007 -0.0146318 -0.0151462
44 1 0.199313 1.40464 0 -0.00023275 0.00224514 0 0.0707227 0.000120058 0 0.04 1.00071 -0.0144641 -0.0138406
45 1 0.397925 1.39888 0 -0.00114658 0.00136715 0 0.0704423 0.000401455 0 0.04 1.00076 -0.014604 -0.0146583
40 1 0.597892 1.19803 0 -0.00167596 0.00092046 0 0.0703355 0.000172852 0 0.04 1.00092 -0.0155502 -0.015476
46 1 0.596771 1.39868 0 -0.00221154 0.00196938 0 0.0702348 0.000295743 0 0.04 1.00079 -0.0149587 -0.0150177
37 1 0.0016308 1.20239 0 0.00149128 0.00117617 0 0.0709153 -2.77233e-05 0 0.04 1.00084 -0.0159598 -0.0153286
32 1 0.197822 1.00085 0 -0.000550382 0.000427074 0 0.0708806 -8.08671e-05 0 0.04 1.00095 -0.0186142 -0.015482
343 1 1.19202 1.40401 0 -0.00469437 0.00123291 0 0.0696072 0.000235326 0 0.04 1.00074 -0.0172425 -0.0164718
337 1 1.19491 1.20242 0 -0.00470141 0.000709105 0 0.0697882 0.000122007 0 0.04 1.00087 -0.0166585 -0.0165962
41 1 0.797569 1.19817 0 -0.00294864 0.000469786 0 0.0701123 0.000221894 0 0.04 1.00091 -0.0153223 -0.0155749
42 1 0.99659 1.20136 0 -0.00399827 0.00121245 0 0.069921 0.000141598 0 0.04 1.00088 -0.0165203 -0.0165339
47 1 0.795579 1.39879 0 -0.00320013 0.00148494 0 0.0699782 0.000516591 0 0.04 1.0008 -0.0150981 -0.0151269
48 1 0.993964 1.40306 0 -0.00408638 0.00191602 0 0.0696865 0.000287065 0 0.04 1.00078 -0.0158151 -0.0164923
331 1 1.19866 1.00065 0 -0.00300159 0.000109488 0 0.0701373 -4.16749e-06 0 0.04 1.00102 -0.0200458 -0.0163192
49 1 0.000309901 1.60629 0 -0.000264116 0.00217919 0 0.070806 0.000197311 0 0.04 1.00078 -0.0151653 -0.0141335
50 1 0.19896 1.60563 0 -0.000848639 0.00262079 0 0.070558 0.000138926 0 0.04 1.00079 -0.0143871 -0.0150471
51 1 0.397651 1.60014 0 -0.00143504 0.00357734 0 0.0703536 0.000144227 0 0.04 1.00082 -0.0154661 -0.0164327
58 1 0.595974 1.80166 0 -0.00200681 0.00323628 0 0.0701172 0.000516929 0 0.04 1.00079 -0.0152747 -0.0158703
56 1 0.198755 1.80586 0 -0.0011949 0.0030294 0 0.070439 0.000416115 0 0.04 1.00088 -0.0144746 -0.0159397
57 1 0.397766 1.8018 0 -0.00155417 0.00279003 0 0.0702858 0.000633762 0 0.04 1.00086 -0.0159775 -0.0164571
52 1 0.595955 1.59991 0 -0.00212757 0.00254215 0 0.0701594 0.000140092 0 0.04 1.00081 -0.0153292 -0.0143889
60 1 0.992151 1.80633 0 -0.00328648 0.00300989 0 0.0699697 0.000555121 0 0.04 1.00088 -0.016208 -0.015141
355 1 1.19073 1.8063 0 -0.00401677 0.00231963 0 0.0697063 0.000487107 0 0.04 1.0009 -0.0176594 -0.0159376
349 1 1.19064 1.60544 0 -0.0040558 0.00180913 0 0.0696167 0.000317453 0 0.04 1.00084 -0.017543 -0.0157208
59 1 0.794038 1.80187 0 -0.00260174 0.0028395 0 0.0700253 0.000729865 0 0.04 1.00081 -0.0158714 -0.0160193
54 1 0.992341 1.6047 0 -0.00344295 0.00239077 0 0.0698044 0.000259172 0 0.04 1.00087 -0.0163739 -0.0171849
53 1 0.79421 1.60006 0 -0.00281595 0.00366485 0 0.0699732 0.00117876 0 0.04 1.00085 -0.0158389 -0.0166943
62 1 0.200055 2.00526 0 -0.0015052 0.00298744 0 0.0704874 0.000639399 0 0.04 1.00086 -0.0156848 -0.0184559
63 1 0.399226 2.00367 0 -0.00150239 0.00285959 0 0.0702896 0.000672407 0 0.04 1.00085 -0.0181507 -0.0163615
68 1 0.200435 2.20451 0 -0.0009591 0.00281256 0 0.0705514 0.000796479 0 0.04 1.00078 -0.0153338 -0.0158352
69 1 0.399557 2.20555 0 -0.00107626 0.00285588 0 0.0703655 0.000798548 0 0.04 1.00078 -0.0172516 -0.0162593
74 1 0.200484 2.40443 0 -0.000781414 0.0027431 0 0.0706442 0.000863142 0 0.04 1.00074 -0.0152703 -0.0150282
75 1 0.399498 2.40716 0 -0.000839076 0.00278025 0 0.0704322 0.000845497 0 0.04 1.00075 -0.016466 -0.0160781
64 1 0.596675 2.00377 0 -0.00160478 0.0034188 0 0.0701623 0.000682289 0 0.04 1.00076 -0.0157201 -0.0154309
70 1 0.59726 2.20609 0 -0.00113831 0.00335237 0 0.0702237 0.000800326 0 0.04 1.00075 -0.0154015 -0.0156814
76 1 0.597602 2.40824 0 -0.000767593 0.00312284 0 0.0702495 0.000816642 0 0.04 1.00077 -0.0150892 -0.0140551
66 1 0.992501 2.00719 0 -0.00225608 0.00355842 0 0.0699435 0.000715357 0 0.04 1.00082 -0.0166181 -0.0156346
71 1 0.794817 2.20619 0 -0.0012157 0.00316287 0 0.0700935 0.000804537 0 0.04 1.00078 -0.0176543 -0.0159044
72 1 0.993846 2.20709 0 -0.00148501 0.00395899 0 0.0699282 0.000821046 0 0.04 1.00084 -0.0159555 -0.0162441
77 1 0.795578 2.40823 0 -0.000765367 0.00313731 0 0.0700955 0.000808516 0 0.04 1.00082 -0.0174093 -0.0143674
78 1 0.995035 2.40637 0 -0.000974117 0.00420996 0 0.0699199 0.000840156 0 0.04 1.00086 -0.0156266 -0.0167474
361 1 1.19258 2.00632 0 -0.00266827 0.00260261 0 0.0697288 0.000697445 0 0.04 1.00087 -0.0161175 -0.016943
367 1 1.19462 2.2054 0 -0.00173717 0.00264562 0 0.0696948 0.00084952 0 0.04 1.00092 -0.0141265 -0.0175208
373 1 1.1961 2.40394 0 -0.00114337 0.00254257 0 0.069675 0.000940971 0 0.04 1.00096 -0.0141768 -0.0161479
65 1 0.793985 2.00398 0 -0.00182607 0.00309723 0 0.0700724 0.000717913 0 0.04 1.00076 -0.0178518 -0.0156152
79 1 2.14773e-05 2.60365 0 -0.000237605 0.00323678 0 0.0709302 0.000902825 0 0.04 1.00076 -0.0137513 -0.0161677
80 1 0.200101 2.60511 0 -0.000446304 0.00271203 0 0.0707198 0.000885746 0 0.04 1.00078 -0.016154 -0.0143642
81 1 0.398738 2.60878 0 -0.000393878 0.00265544 0 0.0704681 0.000864157 0 0.04 1.00079 -0.0164565 -0.0143335
86 1 0.198347 2.80689 0 0.000478764 0.00283483 0 0.0705937 0.000917941 0 0.04 1.00082 -0.0168708 -0.013949
87 1 0.396796 2.80964 0 -0.000385937 0.00296709 0 0.0705365 0.000856775 0 0.04 1.00082 -0.015819 -0.0149713
82 1 0.597018 2.60965 0 -0.000358042 0.00282235 0 0.0702654 0.000789895 0 0.04 1.0008 -0.0166615 -0.0147843
88 1 0.596577 2.80998 0 -0.000760758 0.00249439 0 0.0702923 0.000801423 0 0.04 1.00081 -0.0154267 -0.0158099
379 1 1.19777 2.60223 0 -0.000253955 0.00232658 0 0.0696657 0.00117307 0 0.04 1.00089 -0.0131177 -0.0158715
89 1 0.797004 2.80913 0 -0.000498753 0.00280841 0 0.0699915 0.00073743 0 0.04 1.00074 -0.0142674 -0.0157414
84 1 0.996264 2.6051 0 -0.00028509 0.00417445 0 0.0699663 0.000845773 0 0.04 1.0008 -0.0145741 -0.0146467
83 1 0.796036 2.60936 0 -0.000337704 0.00304911 0 0.0700877 0.000750917 0 0.04 1.0008 -0.016177 -0.0151373
90 1 0.998151 2.80363 0 -0.000244087 0.00374246 0 0.0698078 0.000712931 0 0.04 1.00071 -0.0134439 -0.014292
92 1 0.197012 3.00791 0 -0.000462705 0.00310764 0 0.0708211 0.000947554 0 0.04 1.00077 -0.0150342 -0.0148306
93 1 0.397502 3.00925 0 -0.000529349 0.00316931 0 0.0704505 0.000873765 0 0.04 1.00076 -0.0137548 -0.0159501
98 1 0.196852 3.20745 0 -0.000528089 0.00294103 0 0.0706769 0.000953014 0 0.04 1.0007 -0.0131268 -0.0151422
99 1 0.398477 3.20744 0 -0.000302693 0.00279243 0 0.0703581 0.000910866 0 0.04 1.00073 -0.0123292 -0.0163756
104 1 0.197406 3.40588 0 -0.000440032 0.00205927 0 0.0707771 0.000853897 0 0.04 1.00071 -0.0122509 -0.0160521
105 1 0.399783 3.40465 0 0.00119284 0.00227909 0 0.0700856 0.000885058 0 0.04 1.00076 -0.0140814 -0.0149769
94 1 0.599093 3.00868 0 -0.000506989 0.00229989 0 0.0701336 0.000839103 0 0.04 1.00077 -0.0133383 -0.0167034
100 1 0.601164 3.20606 0 0.000253198 0.0019869 0 0.0700997 0.000859039 0 0.04 1.00077 -0.0143696 -0.0150454
95 1 0.801437 3.00736 0 -0.000452816 0.00241548 0 0.0699655 0.000784751 0 0.04 1.00071 -0.0146107 -0.0166512
96 1 1.00309 3.00225 0 0.000370992 0.00298658 0 0.0696252 0.000855474 0 0.04 1.00071 -0.0138713 -0.0136986
101 1 0.803909 3.20457 0 0.000623354 0.00202326 0 0.069809 0.000880766 0 0.04 1.00076 -0.0125823 -0.0150406
102 1 1.00541 3.20146 0 0.0010265 0.00194273 0 0.0696699 0.0009024 0 0.04 1.00076 -0.0144874 -0.0137879
106 1 0.602662 3.40319 0 0.000346069 0.00179334 0 0.0702491 0.000941362 0 0.04 1.00081 -0.0143558 -0.0152572
107 1 0.805487 3.40175 0 0.000396021 0.0016594 0 0.0698817 0.000970155 0 0.04 1.0008 -0.0126104 -0.0152568
108 1 1.00702 3.40079 0 0.00105036 0.000942037 0 0.0696194 0.000929503 0 0.04 1.00072 -0.0140021 -0.013373
110 1 0.198255 3.60325 0 -0.000710264 0.00113457 0 0.0705741 0.000721973 0 0.04 1.00072 -0.0118205 -0.0145907
111 1 0.401013 3.60176 0 -0.000244954 0.0015478 0 0.0702643 0.000852165 0 0.04 1.00072 -0.0138671 -0.014748
116 1 0.199408 3.80045 0 -5.8649e-05 0.000493126 0 0.0704419 0.000686717 0 0.04 1.00065 -0.0135728 -0.0156892
117 1 0.401719 3.79899 0 -1.77697e-05 0.00110769 0 0.0702849 0.000737243 0 0.04 1.00062 -0.0134047 -0.0154586
122 1 0.202203 3.9985 0 -0.000901012 0.000110697 0 0.0705762 0.000591984 0 0.04 1.00064 -0.014355 -0.0146806
123 1 0.403367 3.99717 0 -0.00034327 0.000511699 0 0.0704183 0.000612304 0 0.04 1.00062 -0.0143064 -0.0144568
125 1 0.804753 3.99541 0 0.00213313 -0.000607898 0 0.0699863 0.000746469 0 0.04 1.00078 -0.0143426 -0.0151234
120 1 1.00738 3.79928 0 0.00158314 -0.00124989 0 0.0698675 0.000825246 0 0.04 1.00071 -0.013591 -0.0134111
119 1 0.806216 3.79655 0 0.000552755 0.000420122 0 0.0699953 0.000893138 0 0.04 1.00072 -0.0124941 -0.0161682
118 1 0.604038 3.79772 0 -0.000144647 0.0012173 0 0.0702021 0.000803687 0 0.04 1.00065 -0.0134869 -0.0156585
114 1 1.00785 3.60005 0 0.00133589 -0.00010203 0 0.0697566 0.00104912 0 0.04 1.00066 -0.013315 -0.0130672
113 1 0.806334 3.59899 0 0.000704621 0.00122673 0 0.069925 0.000963916 0 0.04 1.00074 -0.0122149 -0.0148696
112 1 0.603685 3.60033 0 0.000431103 0.00164961 0 0.0700781 0.000943635 0 0.04 1.00074 -0.0138717 -0.014764
124 1 0.604338 3.99622 0 0.00103496 0.000328215 0 0.0701289 0.000687098 0 0.04 1.00067 -0.0130361 -0.0146473
126 1 1.00496 3.99862 0 0.00289678 -0.00210321 0 0.0698269 0.000691175 0 0.04 1.00079 -0.0144248 -0.0135209
121 1 0.000491997 4.00199 0 -0.00104807 -0.000727486 0 0.0707857 0.000604772 0 0.04 1.00067 -0.0137731 -0.0136653
127 1 0.00297672 4.1999 0 0.000267842 -0.000688913 0 0.0708197 0.000492932 0 0.04 1.0007 -0.0127405 -0.0150317
128 1 0.203447 4.19797 0 -0.000149283 -4.29402e-05 0 0.0706018 0.000482001 0 0.04 1.00067 -0.0140442 -0.0134018
129 1 0.402588 4.19709 0 -7.08006e-05 -0.000242867 0 0.0703422 0.00052 0 0.04 1.00066 -0.0145959 -0.0129831
133 1 0.00410733 4.39886 0 7.42702e-05 -0.000313163 0 0.0708197 0.000341686 0 0.04 1.0007 -0.0134799 -0.0140052
134 1 0.203397 4.39898 0 -0.000176307 -0.000110178 0 0.0706002 0.000365986 0 0.04 1.00067 -0.0148216 -0.0122932
135 1 0.401355 4.3986 0 -0.000146521 -0.000575033 0 0.0703918 0.000383879 0 0.04 1.00068 -0.0132207 -0.0122869
136 1 0.599167 4.39836 0 2.62928e-05 -0.000793335 0 0.0702191 0.000395108 0 0.04 1.00067 -0.0135016 -0.0123098
130 1 0.60092 4.19659 0 -4.18588e-05 -0.000483817 0 0.0701963 0.000553471 0 0.04 1.00071 -0.0134939 -0.0130735
433 1 1.1965 4.40145 0 -0.000285816 -0.000813069 0 0.0698409 0.000334737 0 0.04 1.00083 -0.0142327 -0.016343
427 1 1.19913 4.20242 0 0.000139266 -0.000460347 0 0.0697856 0.000443925 0 0.04 1.00078 -0.0145158 -0.0154772
131 1 0.799272 4.19586 0 5.08712e-05 -0.00121261 0 0.0700571 0.000572281 0 0.04 1.00077 -0.0157786 -0.013766
132 1 0.998737 4.19787 0 8.13568e-05 -0.00255165 0 0.0699258 0.000542431 0 0.04 1.0008 -0.0144403 -0.0153766
137 1 0.796981 4.39743 0 2.96919e-05 -0.00137007 0 0.0700905 0.000416441 0 0.04 1.00067 -0.0153719 -0.0124427
138 1 0.996 4.39754 0 -0.000189828 -0.0024355 0 0.0699778 0.000381436 0 0.04 1.00073 -0.0142584 -0.0145056
139 1 0.00446813 4.59874 0 0.000137441 -0.000167414 0 0.0708272 0.00019469 0 0.04 1.00063 -0.0136123 -0.012875
140 1 0.203236 4.60104 0 3.66927e-05 -0.000199344 0 0.0706279 0.00021147 0 0.04 1.00066 -0.0147546 -0.0121427
141 1 0.401003 4.60089 0 0.000124914 -0.00086877 0 0.0704321 0.000236166 0 0.04 1.00071 -0.0133891 -0.012261
145 1 0.00329359 4.79968 0 -0.000423359 -0.000100799 0 0.0709033 2.91461e-05 0 0.04 1.0006 -0.0142895 -0.0119016
146 1 0.201679 4.80262 0 -0.000353751 -0.000443598 0 0.0706764 6.71395e-05 0 0.04 1.00072 -0.0127731 -0.0130479
147 1 0.400304 4.80269 0 -0.000327252 -0.00106562 0 0.0704938 7.65846e-05 0 0.04 1.00082 -0.0137132 -0.0138112
142 1 0.598672 4.6007 0 0.000226688 -0.00111483 0 0.0702619 0.000244894 0 0.04 1.00066 -0.0134129 -0.0119487
148 1 0.598754 4.80246 0 -0.000224386 -0.00137221 0 0.0703014 8.17117e-05 0 0.04 1.00073 -0.0135805 -0.013238
150 1 0.995308 4.79848 0 -0.000507311 -0.00174921 0 0.0700071 5.63585e-05 0 0.04 1.00065 -0.0145834 -0.0130055
451 1 1.19679 4.99695 0 -0.00130631 -0.00145711 0 0.0698637 -6.46151e-05 0 0.04 1.0008 -0.0145579 -0.0152702
445 1 1.19541 4.79797 0 -0.000683978 -0.00127969 0 0.0698798 7.60176e-05 0 0.04 1.00082 -0.013889 -0.0163787
439 1 1.19526 4.59976 0 -0.000325204 -0.00105966 0 0.0698841 0.000212231 0 0.04 1.00085 -0.0140853 -0.0151855
143 1 0.796234 4.59963 0 0.000177826 -0.00131882 0 0.0701246 0.000240842 0 0.04 1.00057 -0.0150101 -0.0132803
144 1 0.994789 4.59772 0 -0.00014249 -0.00211913 0 0.0700086 0.00022432 0 0.04 1.00067 -0.0142192 -0.0136154
149 1 0.796834 4.80182 0 -0.000227555 -0.00126818 0 0.0701403 6.10387e-05 0 0.04 1.00058 -0.0148609 -0.0117922
151 1 0.00185337 5.0014 0 0.00141134 -0.000172809 0 0.0707227 -9.90997e-05 0 0.04 1.00063 -0.0145175 -0.0121452
152 1 0.200873 5.00321 0 0.000539652 -0.000279594 0 0.0708071 -8.64357e-05 0 0.04 1.00076 -0.0123858 -0.014027
153 1 0.400584 5.00348 0 -7.87206e-05 -0.00104727 0 0.0705731 -8.41934e-05 0 0.04 1.00085 -0.0131208 -0.0145171
158 1 0.198621 5.20254 0 -0.000249716 -0.000138835 0 0.0708105 -0.000242949 0 0.04 1.00071 -0.0126791 -0.015
159 1 0.40026 5.20261 0 4.80572e-05 -0.00110347 0 0.0705758 -0.000237657 0 0.04 1.00074 -0.0124104 -0.0156385
164 1 0.198476 5.40044 0 0.00140175 -0.000543207 0 0.0706242 -0.000409179 0 0.04 1.00065 -0.013247 -0.0136323
165 1 0.401157 5.40004 0 0.000973048 -0.00111385 0 0.0706459 -0.000377677 0 0.04 1.00065 -0.0130001 -0.0138163
154 1 0.600109 5.00326 0 -0.000400365 -0.00141725 0 0.0703364 -8.30876e-05 0 0.04 1.00077 -0.0130226 -0.0139658
155 1 0.799296 5.00319 0 -0.000728933 -0.00121164 0 0.070151 -0.000107189 0 0.04 1.00061 -0.0127018 -0.012335
160 1 0.602516 5.20238 0 0.000223718 -0.00143615 0 0.0703406 -0.000237769 0 0.04 1.0007 -0.0124537 -0.0154031
161 1 0.80379 5.20326 0 0.000403053 -0.00131149 0 0.0701048 -0.000250589 0 0.04 1.00063 -0.0131797 -0.0139898
162 1 1.0035 5.20163 0 0.00037178 -0.00123023 0 0.0699166 -0.000259938 0 0.04 1.0007 -0.0150093 -0.0132498
166 1 0.603924 5.39996 0 0.000696502 -0.00154523 0 0.070353 -0.000363418 0 0.04 1.00067 -0.0116796 -0.0137642
167 1 0.805914 5.40206 0 0.000584455 -0.00148746 0 0.070074 -0.000359961 0 0.04 1.00066 -0.0125338 -0.0150585
168 1 1.00659 5.40219 0 0.000417663 -0.00114431 0 0.0698567 -0.00038485 0 0.04 1.00069 -0.0139987 -0.0139258
156 1 0.997631 5.00007 0 -0.00111488 -0.00140721 0 0.0699991 -0.000110066 0 0.04 1.00067 -0.0153449 -0.0143335
170 1 0.198925 5.59784 0 0.000461495 -0.000753754 0 0.0709789 -0.000535795 0 0.04 1.00063 -0.0131599 -0.0135942
171 1 0.401559 5.59707 0 0.000514394 -0.0010922 0 0.0706189 -0.000475084 0 0.04 1.00065 -0.0130309 -0.0139993
176 1 0.19936 5.79537 0 0.000286214 -0.00110741 0 0.0708533 -0.000625964 0 0.04 1.00065 -0.0135105 -0.0137009
177 1 0.401837 5.79408 0 0.000724417 -0.00133269 0 0.070578 -0.000556505 0 0.04 1.00065 -0.0131572 -0.0142089
182 1 0.199341 5.9932 0 -0.000536587 -0.00208677 0 0.0708765 -0.000679243 0 0.04 1.00065 -0.0138372 -0.0137744
183 1 0.401495 5.9913 0 0.000402161 -0.00189065 0 0.0705542 -0.000638163 0 0.04 1.00061 -0.0130865 -0.0139539
186 1 1.00853 5.99781 0 0.00163089 -0.00190358 0 0.0696867 -0.000601024 0 0.04 1.00075 -0.0130138 -0.0145913
185 1 0.806119 5.99455 0 0.00136291 -0.00225267 0 0.0699084 -0.000527065 0 0.04 1.0008 -0.0146452 -0.0150766
184 1 0.603809 5.99157 0 0.0010326 -0.00254668 0 0.0702097 -0.000490944 0 0.04 1.00068 -0.0138852 -0.0160802
180 1 1.00943 5.80006 0 0.00124757 -0.0015767 0 0.0697291 -0.000539849 0 0.04 1.0007 -0.0127697 -0.0156967
179 1 0.807443 5.79709 0 0.00115137 -0.0019408 0 0.069974 -0.000478098 0 0.04 1.0008 -0.0125705 -0.0149032
178 1 0.604656 5.79433 0 0.000983997 -0.00193705 0 0.0702779 -0.000494126 0 0.04 1.00074 -0.013645 -0.0147095
174 1 1.00885 5.60158 0 0.00100476 -0.00127896 0 0.0697929 -0.000475306 0 0.04 1.00067 -0.0128863 -0.015021
172 1 0.604319 5.59725 0 0.000597659 -0.00164152 0 0.0703221 -0.000450469 0 0.04 1.00072 -0.0136177 -0.0144992
173 1 0.807061 5.59973 0 0.000754538 -0.00167363 0 0.070043 -0.000434795 0 0.04 1.00074 -0.0121903 -0.0145979
188 1 0.200638 6.19153 0 -0.000830582 -0.00331453 0 0.0708478 -0.000741045 0 0.04 1.00071 -0.0147462 -0.0138962
189 1 0.401964 6.18909 0 0.000605674 -0.0034113 0 0.070466 -0.000558606 0 0.04 1.00064 -0.0141061 -0.0154979
193 1 0.00162184 6.3888 0 -0.00256073 -0.00441164 0 0.0709359 -0.000823718 0 0.04 1.0008 -0.0151464 -0.0169802
194 1 0.203041 6.39046 0 -0.00183768 -0.00534057 0 0.0708747 -0.000734206 0 0.04 1.00081 -0.0158756 -0.0145365
195 1 0.403271 6.38831 0 0.00109176 -0.00539693 0 0.0702178 -0.000620506 0 0.04 1.00074 -0.0162077 -0.0151965
190 1 0.603137 6.18993 0 0.00181685 -0.00331662 0 0.0701143 -0.000568017 0 0.04 1.00069 -0.0150286 -0.0153886
196 1 0.603015 6.38952 0 0.00269618 -0.00451808 0 0.07012 -0.00066089 0 0.04 1.00073 -0.0166176 -0.0146451
191 1 0.804412 6.19225 0 0.00225291 -0.0027013 0 0.0698831 -0.000573014 0 0.04 1.00078 -0.0154568 -0.0163615
192 1 1.00607 6.1956 0 0.00250382 -0.0022964 0 0.0696412 -0.000674894 0 0.04 1.00075 -0.0154135 -0.0144622
197 1 0.802829 6.39122 0 0.00398203 -0.00336485 0 0.0698762 -0.000738559 0 0.04 1.00074 -0.0165145 -0.0151569
198 1 1.00355 6.39365 0 0.00465616 -0.0022642 0 0.0695096 -0.000785903 0 0.04 1.00074 -0.0159383 -0.0157877
199 1 0.00383714 6.58753 0 0.00126017 -0.0050299 0 0.0707364 -0.000830831 0 0.04 1.0008 -0.0145064 -0.0157737
200 1 0.20409 6.58971 0 0.00220601 -0.00730381 0 0.0705693 -0.000614823 0 0.04 1.00087 -0.0149725 -0.0161828
201 1 0.403542 6.58893 0 0.00273298 -0.0066287 0 0.0702231 -0.000770573 0 0.04 1.00079 -0.0160582 -0.014281
205 1 0.00497345 6.78735 0 0.00316928 -0.00618771 0 0.0706629 -0.000795671 0 0.04 1.00077 -0.0149683 -0.0151297
206 1 0.204983 6.78931 0 0.00340713 -0.00740526 0 0.0704066 -0.000775548 0 0.04 1.00084 -0.0150486 -0.0158335
207 1 0.404321 6.79012 0 0.00247698 -0.00659596 0 0.070353 -0.00077319 0 0.04 1.00078 -0.0142055 -0.0140263
211 1 0.0048462 6.98794 0 0.00310789 -0.00667357 0 0.0706529 -0.000761462 0 0.04 1.00074 -0.0157581 -0.0140536
212 1 0.203934 6.98916 0 0.00238925 -0.00672248 0 0.0705051 -0.000825716 0 0.04 1.00079 -0.0134454 -0.014822
213 1 0.403065 6.9915 0 0.00114928 -0.00546461 0 0.0703703 -0.000927595 0 0.04 1.00075 -0.0143008 -0.0154897
216 1 0.998422 6.99373 0 -0.000468535 -0.00169283 0 0.0698307 -0.00100076 0 0.04 1.00079 -0.0147564 -0.0138744
511 1 1.19723 6.99525 0 -0.00070105 -0.000634606 0 0.0696711 -0.00102821 0 0.04 1.00086 -0.0145528 -0.0155083
202 1 0.601823 6.59034 0 0.00236534 -0.00500392 0 0.0701002 -0.00081149 0 0.04 1.00072 -0.0158698 -0.0134555
214 1 0.601647 6.99294 0 0.000168799 -0.00425022 0 0.0702324 -0.000960133 0 0.04 1.00066 -0.0136624 -0.0149005
215 1 0.800115 6.99313 0 -0.000188798 -0.00338283 0 0.0700208 -0.000987596 0 0.04 1.00066 -0.0138301 -0.0148063
204 1 1.001 6.5925 0 0.00141834 -0.00210627 0 0.0697543 -0.000895272 0 0.04 1.00075 -0.0146046 -0.0153999
210 1 1.0006 6.79255 0 0.00089287 -0.00195175 0 0.0697976 -0.000958466 0 0.04 1.00076 -0.0139556 -0.0141366
209 1 0.801731 6.79171 0 0.00128258 -0.00360629 0 0.069969 -0.000958816 0 0.04 1.00064 -0.0134544 -0.0130101
208 1 0.603082 6.79177 0 0.00172279 -0.0044952 0 0.0701712 -0.00096632 0 0.04 1.00067 -0.0136134 -0.0150715
203 1 0.800862 6.59109 0 0.00168424 -0.00376588 0 0.0699866 -0.000909732 0 0.04 1.0007 -0.0149653 -0.0141559
217 1 0.00335596 7.18934 0 0.002354 -0.00633225 0 0.0707277 -0.00078484 0 0.04 1.00072 -0.0142684 -0.0152596
218 1 0.202108 7.18948 0 0.00118202 -0.00548376 0 0.0705843 -0.000871225 0 0.04 1.00075 -0.0138387 -0.0139771
219 1 0.400929 7.19278 0 -0.000253473 -0.00431549 0 0.0704393 -0.000969002 0 0.04 1.00078 -0.0145194 -0.0155855
223 1 0.00139062 7.39056 0 0.000243564 -0.00585692 0 0.0708528 -0.000734207 0 0.04 1.00071 -0.0140013 -0.0154577
224 1 0.200171 7.39046 0 -0.000519357 -0.00418521 0 0.0706548 -0.000982711 0 0.04 1.00073 -0.014155 -0.0154643
225 1 0.398802 7.39405 0 -0.00136275 -0.00356083 0 0.0704536 -0.000900014 0 0.04 1.00081 -0.0148732 -0.0158376
220 1 0.599478 7.19421 0 -0.00117321 -0.00383044 0 0.070238 -0.000940544 0 0.04 1.00074 -0.0143825 -0.0153616
226 1 0.597356 7.39549 0 -0.00217753 -0.00323698 0 0.0702513 -0.000902471 0 0.04 1.00083 -0.0150828 -0.0159931
523 1 1.19133 7.39814 0 -0.00422947 -9.7684e-05 0 0.0696516 -0.00103447 0 0.04 1.00078 -0.0155532 -0.0157621
517 1 1.19382 7.19619 0 -0.00294241 -0.000468667 0 0.0696972 -0.00104463 0 0.04 1.00084 -0.0153488 -0.0143431
221 1 0.797897 7.19455 0 -0.00186822 -0.00302097 0 0.0700436 -0.000970017 0 0.04 1.00074 -0.0144816 -0.0152028
222 1 0.995899 7.19582 0 -0.00244757 -0.00137644 0 0.0698497 -0.00100679 0 0.04 1.00082 -0.015509 -0.015383
227 1 0.795761 7.39604 0 -0.00293176 -0.00245293 0 0.0700576 -0.000942479 0 0.04 1.0008 -0.0150789 -0.0157786
228 1 0.993699 7.39805 0 -0.00356743 -0.000941496 0 0.0698446 -0.000983315 0 0.04 1.00079 -0.0155815 -0.0154382
238 1 0.594825 7.79822 0 -0.00270913 -0.00153916 0 0.0702634 -0.000767437 0 0.04 1.0008 -0.0151519 -0.0160024
229 1 0.000644463 7.59171 0 -0.000538354 -0.00507971 0 0.07094 -0.000688043 0 0.04 1.00073 -0.0144166 -0.0153942
230 1 0.199101 7.59176 0 -0.00115399 -0.00391576 0 0.0707067 -0.000793241 0 0.04 1.00072 -0.014565 -0.0152587
231 1 0.397397 7.59545 0 -0.00172105 -0.00277008 0 0.0704611 -0.000845568 0 0.04 1.0008 -0.0150831 -0.0157774
236 1 0.198311 7.79333 0 -0.001334 -0.00377692 0 0.0707203 -0.000617782 0 0.04 1.00074 -0.0149384 -0.0153861
237 1 0.396503 7.79698 0 -0.00185868 -0.00210815 0 0.0704766 -0.000701466 0 0.04 1.00077 -0.0151222 -0.0156531
232 1 0.595756 7.59682 0 -0.00268984 -0.00247405 0 0.0702655 -0.000849964 0 0.04 1.00082 -0.0152351 -0.0160815
242 1 0.197648 7.995 0 -0.00115073 -0.0034705 0 0.0707048 -0.00043273 0 0.04 1.00078 -0.0153058 -0.0156051
244 1 0.594078 7.99971 0 -0.00272714 -0.00063469 0 0.0702573 -0.000630137 0 0.04 1.00084 -0.0155383 -0.0161445
243 1 0.395821 7.99862 0 -0.00181617 -0.00145603 0 0.0704705 -0.000523977 0 0.04 1.00079 -0.0153964 -0.0156438
535 1 1.18895 7.80284 0 -0.00443086 -7.64346e-05 0 0.0696692 -0.000869174 0 0.04 1.00085 -0.0164105 -0.0143997
529 1 1.18921 7.60039 0 -0.00440877 7.28493e-05 0 0.0697159 -0.00098069 0 0.04 1.00077 -0.0158411 -0.0156368
239 1 0.793127 7.7993 0 -0.00361956 -0.00111592 0 0.070075 -0.000821579 0 0.04 1.00081 -0.0154742 -0.0159525
240 1 0.991154 7.80272 0 -0.00422249 -0.00020825 0 0.0698754 -0.00084777 0 0.04 1.00083 -0.015865 -0.0140881
233 1 0.794033 7.59762 0 -0.0036195 -0.00178411 0 0.0700857 -0.000901641 0 0.04 1.0008 -0.0152601 -0.0158068
234 1 0.991815 7.60039 0 -0.00423027 -0.000548039 0 0.0699003 -0.000936785 0 0.04 1.00078 -0.0156695 -0.0153049
248 1 0.196774 8.19663 0 -0.00102405 -0.00288554 0 0.0706995 -0.000261841 0 0.04 1.00082 -0.0157452 -0.0162753
249 1 0.39504 8.20029 0 -0.00187744 -0.000703159 0 0.0704889 -0.000359385 0 0.04 1.00085 -0.0158178 -0.0146918
254 1 0.195762 8.39837 0 -0.00155862 -0.00199934 0 0.0707284 -0.000136305 0 0.04 1.00081 -0.0159239 -0.0164099
255 1 0.393996 8.40147 0 -0.00245789 6.08967e-06 0 0.0705562 -0.000226868 0 0.04 1.0008 -0.0170567 -0.0153222
250 1 0.593336 8.20131 0 -0.00271812 0.000175642 0 0.0702816 -0.000476418 0 0.04 1.00089 -0.0159452 -0.0149745
256 1 0.593035 8.40227 0 -0.00291741 0.000623687 0 0.0703531 -0.000313833 0 0.04 1.00078 -0.0164224 -0.0157692
553 1 1.19502 8.40371 0 -0.00314542 0.000359881 0 0.0696669 -0.000375306 0 0.04 1.00066 -0.015924 -0.0171222
246 1 0.990521 8.0044 0 -0.00440619 0.000166518 0 0.0698348 -0.0007001 0 0.04 1.00092 -0.0163135 -0.0151543
251 1 0.791573 8.20283 0 -0.00348137 0.00015825 0 0.0700595 -0.00051689 0 0.04 1.0009 -0.018042 -0.0154093
252 1 0.990751 8.20491 0 -0.00404293 0.000566644 0 0.0698319 -0.000535133 0 0.04 1.00086 -0.0166645 -0.0166176
257 1 0.792659 8.40344 0 -0.00310823 0.000520509 0 0.0701192 -0.000352582 0 0.04 1.00074 -0.0157739 -0.0160966
258 1 0.993285 8.40388 0 -0.00316133 0.000705162 0 0.0698835 -0.000363162 0 0.04 1.00068 -0.0142137 -0.0169746
541 1 1.18883 8.00463 0 -0.00486368 3.64304e-05 0 0.0696235 -0.00071524 0 0.04 1.00093 -0.0185655 -0.0155267
547 1 1.19089 8.205 0 -0.00435186 0.000268743 0 0.0695876 -0.000545966 0 0.04 1.00082 -0.0162586 -0.0169018
245 1 0.792301 8.0011 0 -0.00367684 -0.000479467 0 0.0700498 -0.000677916 0 0.04 1.00089 -0.01627 -0.0163809
268 1 0.598379 8.80149 0 -0.00175509 0.000364784 0 0.0706271 6.34997e-05 0 0.04 1.00096 -0.0184161 -0.0176573
260 1 0.195141 8.60024 0 -0.00187846 -0.00102729 0 0.0707769 6.61401e-06 0 0.04 1.00091 -0.0183533 -0.0147284
261 1 0.394187 8.60205 0 -0.00260092 0.00039802 0 0.0706319 -5.65382e-05 0 0.04 1.00086 -0.0168564 -0.0155563
266 1 0.195728 8.80081 0 -0.00175776 -0.000264832 0 0.0708456 0.000127199 0 0.04 1.00103 -0.0178035 -0.0166817
267 1 0.396647 8.80147 0 -0.00198094 0.000369882 0 0.0707435 9.27429e-05 0 0.04 1.001 -0.0166248 -0.0176012
262 1 0.594035 8.60242 0 -0.00279945 0.000628737 0 0.0704549 -0.000105114 0 0.04 1.0008 -0.0160671 -0.0156622
264 1 0.996107 8.60196 0 -0.0027101 0.000543712 0 0.0700627 -0.000160481 0 0.04 1.00079 -0.0168932 -0.015549
270 1 1.00109 8.80067 0 -0.00131678 0.000308724 0 0.070378 -3.46905e-06 0 0.04 1.00109 -0.018329 -0.0156916
263 1 0.794558 8.60291 0 -0.00278049 0.000495381 0 0.0702578 -0.000144441 0 0.04 1.00077 -0.0153636 -0.0163544
269 1 0.800136 8.80159 0 -0.00150432 0.000285618 0 0.0705029 2.49465e-05 0 0.04 1.00099 -0.0168761 -0.017732
559 1 1.19801 8.60165 0 -0.00259918 0.000272993 0 0.069885 -0.000184478 0 0.04 1.00088 -0.0174396 -0.0163815
271 2 0 9 0 -1.1762e-05 3.31521e-05 0 -0.00939537 0.0265051 0 0.04 1.00078 -0.0146275 -0.0153351
272 2 0.2 9 0 -1.05945e-05 3.30089e-05 0 -0.00847108 0.026398 0 0.04 1.00087 -0.0155472 -0.016045
273 2 0.4 9 0 -9.40352e-06 2.87979e-05 0 -0.00752165 0.023035 0 0.04 1.00091 -0.0158152 -0.0145922
277 2 0 9.2 0 -1.0547e-05 3.26688e-05 0 -0.00842102 0.0261151 0 0.04 1.0003 -0.00855649 -0.00862578