ITEM: TIMESTEP
0
ITEM: NUMBER OF ATOMS
3111
ITEM: BOX BOUNDS pp pp pp
0.0000000000000000e+00 1.0200000000000001e+01
0.0000000000000000e+00 1.2200000000000001e+01
0.0000000000000000e+00 2.0000000000000001e-01
ITEM: ATOMS id type x y z vx vy vz fx fy fz mass c_density c_peratom[1] c_peratom[2] c_peratom[3] c_peratom[4] c_grad_1 c_grad_2 c_grad_3 c_grad_4 c_gamma c_finterx c_fintery
1 2 0 0 0 0 0 0 -7.10797e-07 3.45944e-07 0 0.04 0.999903 -0.00879905 -0.00879906 -0 2.22722e-08 0 0 0 0 0 0.0150702 0.0226053
2 2 0.2 0 0 0 0 0 -0.00955863 1.77417e-07 0 0.04 0.999903 -0.00497565 -0.00879899 -0 -1.1531e-08 0 0 0 0 0 0.0150702 0.0226053
3 2 0.4 0 0 0 0 0 3.57348e-07 1.30417e-07 0 0.04 0.999903 -0.00879911 -0.00879908 -0 -3.25262e-08 0 0 0 0 0 0.0150702 0.0226053
52 2 0 0.2 0 0 0 0 2.95764e-10 -0.00955796 0 0.04 0.999903 -0.00879908 -0.00497559 -0 -5.71062e-08 0 0 0 0 0 0.0226053 0.0150702
53 2 0.2 0.2 0 0 0 0 -0.00955822 -0.00955852 0 0.04 0.999903 -0.00497565 -0.00497569 -0 -1.97114e-08 0 0 0 0 0 0.0150702 0.0226053
54 2 0.4 0.2 0 0 0 0 -5.19374e-07 -0.0095579 0 0.04 0.999903 -0.00879906 -0.00497573 -0 -4.03524e-08 0 0 0 0 0 0.0226053 0.0150702
103 2 0 0.4 0 0 0 0 3.75076e-07 -1.32959e-07 0 0.04 0.999903 -0.00879902 -0.00879905 -0 -6.2393e-08 0 0 0 0 0 0.0150702 0.0226053
104 2 0.2 0.4 0 0 0 0 -0.00955804 -6.54571e-07 0 0.04 0.999903 -0.00497552 -0.00879909 -0 6.49474e-08 0 0 0 0 0 0.0150702 0.0226053
105 2 0.4 0.4 0 0 0 0 -5.43836e-07 4.65627e-07 0 0.04 0.999903 -0.00879893 -0.00879903 -0 6.77071e-08 0 0 0 0 0 0.0150702 0.0226053
4 2 0.6 0 0 0 0 0 2.15754e-07 -3.34769e-07 0 0.04 0.999903 -0.0087989 -0.00879908 -0 -1.50114e-08 0 0 0 0 0 0.0150702 0.0226053
5 2 0.8 0 0 0 0 0 -1.00461e-06 -9.11616e-07 0 0.04 0.999903 -0.00879911 -0.00879903 -0 5.75655e-09 0 0 0 0 0 0.0150702 0.0226053
55 2 0.6 0.2 0 0 0 0 2.61465e-07 -0.00955847 0 0.04 0.999903 -0.00879906 -0.00497564 -0 -3.47719e-08 0 0 0 0 0 0.0150702 0.0226053
56 2 0.8 0.2 0 0 0 0 1.73001e-07 -0.00955818 0 0.04 0.999903 -0.00879903 -0.00497554 -0 -3.93826e-08 0 0 0 0 0 0.0150702 0.0226053
106 2 0.6 0.4 0 0 0 0 -5.31304e-07 7.67453e-07 0 0.04 0.999903 -0.00879893 -0.00879889 -0 -2.80328e-08 0 0 0 0 0 0.0150702 0.0226053
107 2 0.8 0.4 0 0 0 0 -3.30859e-07 1.67078e-07 0 0.04 0.999903 -0.00879896 -0.00879888 -0 -1.31371e-07 0 0 0 0 0 0.0150702 0.0226053
6 2 1 0 0 0 0 0 1.76936e-07 8.74892e-07 0 0.04 0.999903 -0.00879911 -0.00879902 -0 -1.84503e-09 0 0 0 0 0 0.0150702 0.0226053
7 2 1.2 0 0 0 0 0 0.00955873 1.63593e-07 0 0.04 0.999903 -0.0049756 -0.00879897 -0 -8.11582e-08 0 0 0 0 0 0.0150702 0.0226053
8 2 1.4 0 0 0 0 0 -1.00938e-07 -3.67657e-07 0 0.04 0.999903 -0.00879909 -0.00879905 -0 2.86026e-09 0 0 0 0 0 0.0150702 0.0226053
57 2 1 0.2 0 0 0 0 6.89693e-07 -0.00955873 0 0.04 0.999903 -0.00879917 -0.0049757 -0 -9.92455e-09 0 0 0 0 0 0.0226053 0.0150702
58 2 1.2 0.2 0 0 0 0 0.00955837 -0.00955871 0 0.04 0.999903 -0.00497553 -0.00497553 -0 -1.11396e-08 0 0 0 0 0 0.0150702 0.0226053
59 2 1.4 0.2 0 0 0 0 -6.62865e-07 -0.00955808 0 0.04 0.999903 -0.00879908 -0.0049756 -0 -4.90015e-08 0 0 0 0 0 0.0226053 0.0150702
108 2 1 0.4 0 0 0 0 1.99274e-07 -5.8133e-07 0 0.04 0.999903 -0.00879893 -0.00879899 -0 -3.67361e-08 0 0 0 0 0 0.0150702 0.0226053
109 2 1.2 0.4 0 0 0 0 0.00955809 -2.76505e-07 0 0.04 0.999903 -0.00497566 -0.00879913 -0 -7.64921e-08 0 0 0 0 0 0.0150702 0.0226053
110 2 1.4 0.4 0 0 0 0 -9.01966e-07 6.03606e-07 0 0.04 0.999903 -0.00879904 -0.00879908 -0 1.15344e-08 0 0 0 0 0 0.0150702 0.0226053
9 2 1.6 0 0 0 0 0 2.20029e-08 5.24806e-09 0 0.04 0.999903 -0.00879902 -0.00879909 -0 -1.50089e-08 0 0 0 0 0 0.0150702 0.0226053
10 2 1.8 0 0 0 0 0 3.33158e-07 -3.76846e-07 0 0.04 0.999903 -0.00879907 -0.00879902 -0 -1.56754e-08 0 0 0 0 0 0.0150702 0.0226053
60 2 1.6 0.2 0 0 0 0 2.24052e-07 -0.00955818 0 0.04 0.999903 -0.0087991 -0.00497568 -0 3.68325e-08 0 0 0 0 0 0.0150702 0.0226053
61 2 1.8 0.2 0 0 0 0 3.78993e-07 -0.00955779 0 0.04 0.999903 -0.00879914 -0.00497568 -0 8.38948e-08 0 0 0 0 0 0.0150702 0.0226053
111 2 1.6 0.4 0 0 0 0 -4.81484e-07 9.88212e-07 0 0.04 0.999903 -0.00879894 -0.00879901 -0 5.91908e-09 0 0 0 0 0 0.0150702 0.0226053
112 2 1.8 0.4 0 0 0 0 5.61447e-07 -1.40111e-07 0 0.04 0.999903 -0.00879898 -0.0087991 -0 -6.48765e-09 0 0 0 0 0 0.0150702 0.0226053
11 2 2 0 0 0 0 0 -0.00955846 -8.22615e-07 0 0.04 0.999903 -0.00497579 -0.00879916 -0 -1.55959e-08 0 0 0 0 0 0.0150702 0.0226053
12 2 2.2 0 0 0 0 0 0.00955855 -4.45883e-07 0 0.04 0.999903 -0.0049756 -0.00879916 -0 -3.80501e-08 0 0 0 0 0 0.0150702 0.0226053
13 2 2.4 0 0 0 0 0 0.00955851 1.7168e-07 0 0.04 0.999903 -0.00497588 -0.00879906 -0 -5.91525e-08 0 0 0 0 0 0.0150702 0.0226053
62 2 2 0.2 0 0 0 0 -0.00955886 -0.00955851 0 0.04 0.999903 -0.00497563 -0.00497567 -0 7.42828e-08 0 0 0 0 0 0.0226053 0.0150702
63 2 2.2 0.2 0 0 0 0 0.00955777 -0.00955835 0 0.04 0.999903 -0.00497569 -0.00497551 -0 -2.60162e-08 0 0 0 0 0 0.0150702 0.0226053
64 2 2.4 0.2 0 0 0 0 0.00955872 -0.0095581 0 0.04 0.999903 -0.00497565 -0.00497566 -0 2.95354e-08 0 0 0 0 0 0.0226053 0.0150702
113 2 2 0.4 0 0 0 0 -0.00955872 7.67468e-07 0 0.04 0.999903 -0.00497563 -0.008799 -0 1.8099e-08 0 0 0 0 0 0.0150702 0.0226053
114 2 2.2 0.4 0 0 0 0 0.00955856 7.56841e-08 0 0.04 0.999903 -0.00497577 -0.00879912 -0 -5.9519e-08 0 0 0 0 0 0.0150702 0.0226053
115 2 2.4 0.4 0 0 0 0 0.009558 1.4503e-07 0 0.04 0.999903 -0.00497546 -0.00879902 -0 -1.82121e-08 0 0 0 0 0 0.0150702 0.0226053
14 2 2.6 0 0 0 0 0 -1.09698e-07 -1.92803e-07 0 0.04 0.999903 -0.00879902 -0.00879901 -0 2.02305e-08 0 0 0 0 0 0.0150702 0.0226053
15 2 2.8 0 0 0 0 0 0.00955785 -4.96801e-07 0 0.04 0.999903 -0.00497565 -0.00879904 -0 3.35274e-08 0 0 0 0 0 0.0150702 0.0226053
65 2 2.6 0.2 0 0 0 0 -1.47846e-07 -0.00955914 0 0.04 0.999903 -0.00879916 -0.00497571 -0 -1.83244e-08 0 0 0 0 0 0.0150702 0.0226053
66 2 2.8 0.2 0 0 0 0 0.00955911 -0.00955804 0 0.04 0.999903 -0.00497568 -0.00497562 -0 -3.12143e-08 0 0 0 0 0 0.0226053 0.0150702
116 2 2.6 0.4 0 0 0 0 2.54647e-07 2.4766e-07 0 0.04 0.999903 -0.00879903 -0.00879908 -0 7.19231e-08 0 0 0 0 0 0.0150702 0.0226053
117 2 2.8 0.4 0 0 0 0 0.00955908 5.58495e-07 0 0.04 0.999903 -0.00497561 -0.00879902 -0 -5.19694e-08 0 0 0 0 0 0.0150702 0.0226053
16 2 3 0 0 0 0 0 -0.00955752 -1.83117e-07 0 0.04 0.999903 -0.00497566 -0.00879919 -0 -3.42221e-10 0 0 0 0 0 0.0150702 0.0226053
17 2 3.2 0 0 0 0 0 -4.85588e-07 -5.32405e-07 0 0.04 0.999903 -0.00115227 -0.00879898 -0 -4.53356e-08 0 0 0 0 0 0.0150702 0.0226053
67 2 3 0.2 0 0 0 0 -0.00955833 -0.00955816 0 0.04 0.999903 -0.00497562 -0.00497571 -0 3.45509e-08 0 0 0 0 0 0.0150702 0.0226053
68 2 3.2 0.2 0 0 0 0 -2.56679e-07 -0.00955882 0 0.04 0.999903 -0.00115214 -0.00497565 -0 6.68172e-09 0 0 0 0 0 0.0150702 0.0226053
118 2 3 0.4 0 0 0 0 -0.00955939 -3.71802e-07 0 0.04 0.999903 -0.00497574 -0.00879903 -0 -1.3529e-07 0 0 0 0 0 0.0150702 0.0226053
119 2 3.2 0.4 0 0 0 0 5.91493e-10 1.67506e-07 0 0.04 0.999903 -0.00115228 -0.00879907 -0 -1.23308e-08 0 0 0 0 0 0.0150702 0.0226053
18 2 3.4 0 0 0 0 0 0.00955882 2.61059e-07 0 0.04 0.999903 -0.00497558 -0.00879899 -0 1.0091e-08 0 0 0 0 0 0.0150702 0.0226053
19 2 3.6 0 0 0 0 0 -0.00955892 4.35431e-07 0 0.04 0.999903 -0.00497563 -0.00879904 -0 -1.4076e-08 0 0 0 0 0 0.0150702 0.0226053
20 2 3.8 0 0 0 0 0 2.69347e-07 -2.08082e-07 0 0.04 0.999903 -0.00879912 -0.00879905 -0 4.79336e-08 0 0 0 0 0 0.0150702 0.0226053
69 2 3.4 0.2 0 0 0 0 0.0095584 -0.0095583 0 0.04 0.999903 -0.00497565 -0.00497565 -0 4.72622e-08 0 0 0 0 0 0.0226053 0.0150702
70 2 3.6 0.2 0 0 0 0 -0.00955835 -0.00955891 0 0.04 0.999903 -0.00497564 -0.00497561 -0 -1.89862e-09 0 0 0 0 0 0.0150702 0.0226053
71 2 3.8 0.2 0 0 0 0 -2.25296e-08 -0.00955924 0 0.04 0.999903 -0.00879912 -0.00497568 -0 2.99005e-08 0 0 0 0 0 0.0226053 0.0150702
120 2 3.4 0.4 0 0 0 0 0.00955824 -7.75779e-07 0 0.04 0.999903 -0.00497578 -0.00879911 -0 -8.6373e-08 0 0 0 0 0 0.0150702 0.0226053
121 2 3.6 0.4 0 0 0 0 -0.00955834 -3.47139e-07 0 0.04 0.999903 -0.00497567 -0.00879912 -0 -8.74356e-09 0 0 0 0 0 0.0150702 0.0226053
122 2 3.8 0.4 0 0 0 0 -2.87708e-07 7.94689e-08 0 0.04 0.999903 -0.00879895 -0.00879897 -0 -1.54265e-08 0 0 0 0 0 0.0150702 0.0226053
21 2 4 0 0 0 0 0 -0.00955886 -7.72267e-08 0 0.04 0.999903 -0.00497557 -0.00879908 -0 1.78298e-09 0 0 0 0 0 0.0150702 0.0226053
22 2 4.2 0 0 0 0 0 3.15774e-07 7.62598e-07 0 0.04 0.999903 -0.00115236 -0.00879923 -0 -3.07243e-08 0 0 0 0 0 0.0150702 0.0226053
72 2 4 0.2 0 0 0 0 -0.00955859 -0.00955858 0 0.04 0.999903 -0.00497555 -0.00497566 -0 -4.7201e-08 0 0 0 0 0 0.0150702 0.0226053
73 2 4.2 0.2 0 0 0 0 5.35118e-07 -0.00955912 0 0.04 0.999903 -0.00115225 -0.00497571 -0 4.24844e-08 0 0 0 0 0 0.0150702 0.0226053
123 2 4 0.4 0 0 0 0 -0.00955852 1.11261e-06 0 0.04 0.999903 -0.0049755 -0.00879904 -0 3.79971e-08 0 0 0 0 0 0.0150702 0.0226053
124 2 4.2 0.4 0 0 0 0 1.30632e-07 7.06364e-07 0 0.04 0.999903 -0.00115231 -0.00879913 -0 7.39463e-09 0 0 0 0 0 0.0150702 0.0226053
23 2 4.4 0 0 0 0 0 0.00955824 -3.13273e-08 0 0.04 0.999903 -0.00497562 -0.00879916 -0 -2.51507e-08 0 0 0 0 0 0.0150702 0.0226053
24 2 4.6 0 0 0 0 0 0.0095582 -2.30955e-07 0 0.04 0.999903 -0.00497566 -0.00879908 -0 -2.20464e-08 0 0 0 0 0 0.0150702 0.0226053
25 2 4.8 0 0 0 0 0 0.00955833 7.03958e-07 0 0.04 0.999903 -0.00497568 -0.00879905 -0 -1.40562e-08 0 0 0 0 0 0.0150702 0.0226053
74 2 4.4 0.2 0 0 0 0 0.00955817 -0.00955818 0 0.04 0.999903 -0.00497558 -0.00497567 -0 -1.95895e-08 0 0 0 0 0 0.0226053 0.0150702
75 2 4.6 0.2 0 0 0 0 0.00955788 -0.00955857 0 0.04 0.999903 -0.00497571 -0.00497573 -0 -3.44725e-08 0 0 0 0 0 0.0150702 0.0226053
76 2 4.8 0.2 0 0 0 0 0.00956007 -0.00955808 0 0.04 0.999903 -0.00497575 -0.00497569 -0 -3.21481e-09 0 0 0 0 0 0.0226053 0.0150702
125 2 4.4 0.4 0 0 0 0 0.00955932 -2.8161e-07 0 0.04 0.999903 -0.00497558 -0.00879908 -0 2.42623e-08 0 0 0 0 0 0.0150702 0.0226053
126 2 4.6 0.4 0 0 0 0 0.00955826 2.23464e-07 0 0.04 0.999903 -0.0049756 -0.00879895 -0 -3.90284e-08 0 0 0 0 0 0.0150702 0.0226053
127 2 4.8 0.4 0 0 0 0 0.00955889 -1.89497e-07 0 0.04 0.999903 -0.00497561 -0.00879905 -0 -5.52738e-08 0 0 0 0 0 0.0150702 0.0226053
26 2 5 0 0 0 0 0 -0.00955831 -7.54902e-07 0 0.04 0.999903 -0.00497563 -0.008799 -0 -3.77823e-08 0 0 0 0 0 0.0150702 0.0226053
27 2 5.2 0 0 0 0 0 2.71023e-07 -5.24151e-08 0 0.04 0.999903 -0.00115218 -0.00879905 -0 2.95389e-09 0 0 0 0 0 0.0150702 0.0226053
77 2 5 0.2 0 0 0 0 -0.00955876 -0.00955779 0 0.04 0.999903 -0.00497574 -0.00497577 -0 -3.69146e-08 0 0 0 0 0 0.0150702 0.0226053
78 2 5.2 0.2 0 0 0 0 -7.57732e-08 -0.00955857 0 0.04 0.999903 -0.00115227 -0.00497571 -0 -3.47429e-08 0 0 0 0 0 0.0150702 0.0226053
128 2 5 0.4 0 0 0 0 -0.00955907 3.05384e-07 0 0.04 0.999903 -0.00497563 -0.00879899 -0 4.78893e-08 0 0 0 0 0 0.0150702 0.0226053
129 2 5.2 0.4 0 0 0 0 1.79082e-07 -3.3346e-07 0 0.04 0.999903 -0.00115222 -0.00879893 -0 2.32736e-09 0 0 0 0 0 0.0150702 0.0226053
28 2 5.4 0 0 0 0 0 -2.59649e-07 -5.28967e-07 0 0.04 0.999903 -0.00115215 -0.00879904 -0 6.00403e-08 0 0 0 0 0 0.0150702 0.0226053
29 2 5.6 0 0 0 0 0 -3.84314e-07 -3.81759e-07 0 0.04 0.999903 -0.0011522 -0.00879899 -0 3.27485e-08 0 0 0 0 0 0.0150702 0.0226053
30 2 5.8 0 0 0 0 0 0.00955868 -4.44002e-07 0 0.04 0.999903 -0.00497557 -0.008799 -0 -4.49839e-09 0 0 0 0 0 0.0150702 0.0226053
79 2 5.4 0.2 0 0 0 0 -1.19987e-08 -0.00955842 0 0.04 0.999903 -0.00115225 -0.00497554 -0 -1.34069e-09 0 0 0 0 0 0.0226053 0.0150702
80 2 5.6 0.2 0 0 0 0 -2.68077e-08 -0.00955869 0 0.04 0.999903 -0.0011523 -0.00497569 -0 4.61809e-08 0 0 0 0 0 0.0150702 0.0226053
81 2 5.8 0.2 0 0 0 0 0.00955868 -0.00955903 0 0.04 0.999903 -0.00497574 -0.0049759 -0 1.99807e-08 0 0 0 0 0 0.0226053 0.0150702
130 2 5.4 0.4 0 0 0 0 -3.67606e-08 6.66561e-07 0 0.04 0.999903 -0.00115207 -0.00879894 -0 1.32055e-08 0 0 0 0 0 0.0150702 0.0226053
131 2 5.6 0.4 0 0 0 0 -2.75133e-07 2.40015e-07 0 0.04 0.999903 -0.00115212 -0.00879905 -0 -2.0863e-08 0 0 0 0 0 0.0150702 0.0226053
132 2 5.8 0.4 0 0 0 0 0.00955901 4.97981e-07 0 0.04 0.999903 -0.00497565 -0.00879918 -0 2.05634e-08 0 0 0 0 0 0.0150702 0.0226053
31 2 6 0 0 0 0 0 -0.0095586 -7.4231e-08 0 0.04 0.999903 -0.00497554 -0.0087988 -0 2.69976e-08 0 0 0 0 0 0.0150702 0.0226053
32 2 6.2 0 0 0 0 0 -1.09041e-06 7.33914e-07 0 0.04 0.999903 -0.00115218 -0.00879918 -0 1.04764e-08 0 0 0 0 0 0.0150702 0.0226053
82 2 6 0.2 0 0 0 0 -0.00955799 -0.00955986 0 0.04 0.999903 -0.00497569 -0.00497564 -0 -5.34879e-09 0 0 0 0 0 0.0150702 0.0226053
83 2 6.2 0.2 0 0 0 0 -5.76513e-07 -0.00955913 0 0.04 0.999903 -0.00115215 -0.00497561 -0 -3.36244e-08 0 0 0 0 0 0.0226053 0.0150702
133 2 6 0.4 0 0 0 0 -0.00955837 7.77757e-08 0 0.04 0.999903 -0.00497564 -0.00879913 -0 4.25082e-08 0 0 0 0 0 0.0150702 0.0226053
134 2 6.2 0.4 0 0 0 0 3.81423e-07 7.56322e-07 0 0.04 0.999903 -0.00115219 -0.00879887 -0 -2.90119e-08 0 0 0 0 0 0.0150702 0.0226053
33 2 6.4 0 0 0 0 0 9.4315e-08 4.31366e-07 0 0.04 0.999903 -0.00115232 -0.00879897 -0 6.98903e-08 0 0 0 0 0 0.0150702 0.0226053
34 2 6.6 0 0 0 0 0 -6.95674e-07 3.82248e-07 0 0.04 0.999903 -0.0011523 -0.00879903 -0 -4.16133e-08 0 0 0 0 0 0.0150702 0.0226053
84 2 6.4 0.2 0 0 0 0 -5.29051e-08 -0.0095584 0 0.04 0.999903 -0.00115219 -0.00497553 -0 -1.13967e-07 0 0 0 0 0 0.0150702 0.0226053
85 2 6.6 0.2 0 0 0 0 -6.1361e-07 -0.00955895 0 0.04 0.999903 -0.0011521 -0.00497568 -0 3.46725e-08 0 0 0 0 0 0.0150702 0.0226053
135 2 6.4 0.4 0 0 0 0 4.95126e-07 -2.23087e-07 0 0.04 0.999903 -0.00115215 -0.00879894 -0 -2.59875e-08 0 0 0 0 0 0.0150702 0.0226053
136 2 6.6 0.4 0 0 0 0 8.6083e-07 2.49319e-07 0 0.04 0.999903 -0.0011522 -0.0087991 -0 -2.47095e-09 0 0 0 0 0 0.0150702 0.0226053
35 2 6.8 0 0 0 0 0 0.00955788 -6.93928e-07 0 0.04 0.999903 -0.00497567 -0.00879915 -0 -1.76113e-08 0 0 0 0 0 0.0150702 0.0226053
36 2 7 0 0 0 0 0 -0.00955934 1.66074e-07 0 0.04 0.999903 -0.00497573 -0.00879898 -0 6.6188e-09 0 0 0 0 0 0.0150702 0.0226053
37 2 7.2 0 0 0 0 0 6.61335e-07 -1.90751e-07 0 0.04 0.999903 -0.00115241 -0.00879919 -0 -1.11962e-08 0 0 0 0 0 0.0150702 0.0226053
86 2 6.8 0.2 0 0 0 0 0.0095593 -0.00955867 0 0.04 0.999903 -0.00497552 -0.00497561 -0 -3.42845e-08 0 0 0 0 0 0.0226053 0.0150702
87 2 7 0.2 0 0 0 0 -0.00955953 -0.00955898 0 0.04 0.999903 -0.0049757 -0.00497556 -0 -4.73226e-08 0 0 0 0 0 0.0150702 0.0226053
88 2 7.2 0.2 0 0 0 0 -1.20418e-07 -0.00955854 0 0.04 0.999903 -0.00115231 -0.00497569 -0 4.42339e-08 0 0 0 0 0 0.0226053 0.0150702
137 2 6.8 0.4 0 0 0 0 0.00955833 6.80906e-07 0 0.04 0.999903 -0.00497562 -0.00879904 -0 3.85236e-08 0 0 0 0 0 0.0150702 0.0226053
138 2 7 0.4 0 0 0 0 -0.00955894 -9.78424e-08 0 0.04 0.999903 -0.00497551 -0.00879902 -0 1.29238e-08 0 0 0 0 0 0.0150702 0.0226053
139 2 7.2 0.4 0 0 0 0 -1.75992e-07 3.39227e-07 0 0.04 0.999903 -0.00115234 -0.00879911 -0 -8.99452e-09 0 0 0 0 0 0.0150702 0.0226053
38 2 7.4 0 0 0 0 0 -0.00955808 -3.95303e-08 0 0.04 0.999903 -0.00497575 -0.00879903 -0 -3.94039e-08 0 0 0 0 0 0.0150702 0.0226053
39 2 7.6 0 0 0 0 0 -4.72973e-07 8.9237e-09 0 0.04 0.999903 -0.00115225 -0.00879908 -0 7.32476e-09 0 0 0 0 0 0.0150702 0.0226053
89 2 7.4 0.2 0 0 0 0 -0.00955865 -0.00955892 0 0.04 0.999903 -0.00497562 -0.00497557 -0 -5.86678e-08 0 0 0 0 0 0.0150702 0.0226053
90 2 7.6 0.2 0 0 0 0 4.55241e-07 -0.0095587 0 0.04 0.999903 -0.0011524 -0.00497543 -0 -5.01368e-08 0 0 0 0 0 0.0150702 0.0226053
140 2 7.4 0.4 0 0 0 0 -0.00955818 2.04576e-07 0 0.04 0.999903 -0.00497566 -0.00879906 -0 -6.07673e-08 0 0 0 0 0 0.0150702 0.0226053
141 2 7.6 0.4 0 0 0 0 4.98797e-07 1.25965e-06 0 0.04 0.999903 -0.00115211 -0.00879888 -0 -1.98468e-08 0 0 0 0 0 0.0150702 0.0226053
40 2 7.8 0 0 0 0 0 0.00955773 7.66266e-07 0 0.04 0.999903 -0.00497562 -0.00879908 -0 3.99495e-08 0 0 0 0 0 0.0150702 0.0226053
41 2 8 0 0 0 0 0 -0.00955767 -1.00176e-06 0 0.04 0.999903 -0.00497565 -0.00879904 -0 3.62381e-08 0 0 0 0 0 0.0150702 0.0226053
42 2 8.2 0 0 0 0 0 0.00955864 -7.00162e-07 0 0.04 0.999903 -0.00497561 -0.00879925 -0 -2.82948e-08 0 0 0 0 0 0.0150702 0.0226053
91 2 7.8 0.2 0 0 0 0 0.00955867 -0.00955823 0 0.04 0.999903 -0.00497564 -0.00497557 -0 -3.10593e-09 0 0 0 0 0 0.0226053 0.0150702
92 2 8 0.2 0 0 0 0 -0.00955907 -0.00955854 0 0.04 0.999903 -0.00497569 -0.00497572 -0 2.67057e-08 0 0 0 0 0 0.0150702 0.0226053
93 2 8.2 0.2 0 0 0 0 0.00955886 -0.00955868 0 0.04 0.999903 -0.00497562 -0.00497573 -0 9.80488e-08 0 0 0 0 0 0.0226053 0.0150702
142 2 7.8 0.4 0 0 0 0 0.00955877 -2.88559e-07 0 0.04 0.999903 -0.00497572 -0.00879916 -0 -4.36576e-08 0 0 0 0 0 0.0150702 0.0226053
143 2 8 0.4 0 0 0 0 -0.00955877 4.18452e-08 0 0.04 0.999903 -0.00497571 -0.00879905 -0 1.42339e-08 0 0 0 0 0 0.0150702 0.0226053
144 2 8.2 0.4 0 0 0 0 0.00955752 -5.3277e-07 0 0.04 0.999903 -0.00497565 -0.00879909 -0 -3.29302e-08 0 0 0 0 0 0.0150702 0.0226053
43 2 8.4 0 0 0 0 0 -0.00955876 1.09398e-07 0 0.04 0.999903 -0.00497557 -0.00879908 -0 -4.00325e-08 0 0 0 0 0 0.0150702 0.0226053
44 2 8.6 0 0 0 0 0 -0.00955896 -4.33716e-08 0 0.04 0.999903 -0.00497564 -0.00879898 -0 1.57846e-08 0 0 0 0 0 0.0150702 0.0226053
94 2 8.4 0.2 0 0 0 0 -0.00955879 -0.00955936 0 0.04 0.999903 -0.00497571 -0.00497562 -0 -1.99253e-11 0 0 0 0 0 0.0150702 0.0226053
95 2 8.6 0.2 0 0 0 0 -0.00955903 -0.00955811 0 0.04 0.999903 -0.00497565 -0.00497569 -0 -3.44648e-08 0 0 0 0 0 0.0150702 0.0226053
145 2 8.4 0.4 0 0 0 0 -0.0095581 2.0561e-07 0 0.04 0.999903 -0.00497577 -0.00879913 -0 1.10407e-07 0 0 0 0 0 0.0150702 0.0226053
146 2 8.6 0.4 0 0 0 0 -0.00955782 -4.24868e-07 0 0.04 0.999903 -0.00497566 -0.00879907 -0 -6.56668e-08 0 0 0 0 0 0.0150702 0.0226053
45 2 8.8 0 0 0 0 0 7.31155e-07 -4.73871e-07 0 0.04 0.999903 -0.00879902 -0.0087991 -0 -6.31398e-09 0 0 0 0 0 0.0150702 0.0226053
46 2 9 0 0 0 0 0 -0.0095586 -4.47083e-07 0 0.04 0.999903 -0.00497565 -0.00879903 -0 -1.00879e-07 0 0 0 0 0 0.0150702 0.0226053
47 2 9.2 0 0 0 0 0 0.00955803 -1.91731e-07 0 0.04 0.999903 -0.0049757 -0.00879908 -0 -4.72185e-08 0 0 0 0 0 0.0150702 0.0226053
96 2 8.8 0.2 0 0 0 0 1.18322e-07 -0.00955888 0 0.04 0.999903 -0.00879905 -0.00497554 -0 3.8496e-08 0 0 0 0 0 0.0226053 0.0150702
97 2 9 0.2 0 0 0 0 -0.00955833 -0.00955837 0 0.04 0.999903 -0.00497568 -0.00497567 -0 -1.4425e-09 0 0 0 0 0 0.0150702 0.0226053
98 2 9.2 0.2 0 0 0 0 0.0095584 -0.00955867 0 0.04 0.999903 -0.00497562 -0.00497563 -0 8.9602e-08 0 0 0 0 0 0.0226053 0.0150702
147 2 8.8 0.4 0 0 0 0 -2.23178e-07 7.13029e-07 0 0.04 0.999903 -0.00879911 -0.00879924 -0 -6.22616e-08 0 0 0 0 0 0.0150702 0.0226053
148 2 9 0.4 0 0 0 0 -0.00955858 -1.56503e-07 0 0.04 0.999903 -0.00497564 -0.00879914 -0 -1.8344e-09 0 0 0 0 0 0.0150702 0.0226053
149 2 9.2 0.4 0 0 0 0 0.00955848 1.80308e-07 0 0.04 0.999903 -0.00497563 -0.00879913 -0 -9.58592e-08 0 0 0 0 0 0.0150702 0.0226053
48 2 9.4 0 0 0 0 0 -5.16261e-09 -8.20337e-08 0 0.04 0.999903 -0.00879904 -0.00879903 -0 -7.32442e-09 0 0 0 0 0 0.0150702 0.0226053
49 2 9.6 0 0 0 0 0 0.00955829 -5.36823e-07 0 0.04 0.999903 -0.00497565 -0.00879901 -0 -6.69839e-08 0 0 0 0 0 0.0150702 0.0226053
99 2 9.4 0.2 0 0 0 0 -2.19007e-07 -0.00955879 0 0.04 0.999903 -0.00879916 -0.0049758 -0 1.40938e-09 0 0 0 0 0 0.0150702 0.0226053
100 2 9.6 0.2 0 0 0 0 0.00955874 -0.00955746 0 0.04 0.999903 -0.00497564 -0.00497563 -0 -1.30642e-08 0 0 0 0 0 0.0226053 0.0150702
150 2 9.4 0.4 0 0 0 0 2.01281e-07 -1.48384e-07 0 0.04 0.999903 -0.00879902 -0.00879906 -0 5.49682e-08 0 0 0 0 0 0.0150702 0.0226053
151 2 9.6 0.4 0 0 0 0 0.00955933 -8.11925e-08 0 0.04 0.999903 -0.00497571 -0.00879902 -0 6.57565e-08 0 0 0 0 0 0.0150702 0.0226053
50 2 9.8 0 0 0 0 0 -4.02537e-07 3.62847e-07 0 0.04 0.999903 -0.00879919 -0.008799 -0 1.81101e-08 0 0 0 0 0 0.0150702 0.0226053
51 2 10 0 0 0 0 0 -0.00955754 -6.75883e-08 0 0.04 0.999903 -0.00497565 -0.00879904 -0 6.30633e-08 0 0 0 0 0 0.0150702 0.0226053
101 2 9.8 0.2 0 0 0 0 -5.13145e-07 -0.00955849 0 0.04 0.999903 -0.00879909 -0.00497568 -0 -7.50497e-08 0 0 0 0 0 0.0150702 0.0226053
102 2 10 0.2 0 0 0 0 -0.00955829 -0.00955849 0 0.04 0.999903 -0.0049757 -0.00497576 -0 -5.66657e-08 0 0 0 0 0 0.0150702 0.0226053
152 2 9.8 0.4 0 0 0 0 1.7427e-07 -2.97934e-07 0 0.04 0.999903 -0.00879911 -0.00879922 -0 -2.80306e-08 0 0 0 0 0 0.0150702 0.0226053
153 2 10 0.4 0 0 0 0 -0.0095578 -5.46103e-07 0 0.04 0.999903 -0.00497559 -0.00879915 -0 -2.58089e-08 0 0 0 0 0 0.0150702 0.0226053
154 2 0 0.6 0 0 0 0 6.92381e-07 -0.291966 0 0.04 0.999903 -0.0195679 -0.0963889 -0 5.79811e-08 0 0 0 0 0 0.0226053 0.0150702
155 2 0.2 0.6 0 0 0 0 -0.00955902 -0.291967 0 0.04 0.999903 -0.0157445 -0.0963889 -0 3.5641e-08 0 0 0 0 0 1.50702e-05 2.26053e-05
156 2 0.4 0.6 0 0 0 0 2.30754e-07 -0.291967 0 0.04 0.999903 -0.019568 -0.0963891 -0 -8.12604e-08 0 0 0 0 0 0.0226053 0.0150702
205 2 0 0.8 0 0 0 0 -2.24797e-07 -1.58717 0 0.04 0.999903 -0.105281 -0.35543 -0 5.81613e-08 0 0 0 0 0 2.26053e-05 1.50702e-05
206 2 0.2 0.8 0 0 0 0 -0.00955817 -1.58717 0 0.04 0.999903 -0.101457 -0.35543 -0 -3.91398e-08 0 0 0 0 0 1.50702e-05 2.26053e-05
207 2 0.4 0.8 0 0 0 0 1.0781e-06 -1.58717 0 0.04 0.999903 -0.105281 -0.35543 -0 -3.1668e-08 0 0 0 0 0 2.26053e-05 1.50702e-05
157 2 0.6 0.6 0 0 0 0 4.56714e-07 -0.291967 0 0.04 0.999903 -0.019568 -0.096389 -0 -4.72654e-09 0 0 0 0 0 1.50702e-05 2.26053e-05
158 2 0.8 0.6 0 0 0 0 -6.66472e-07 -0.291967 0 0.04 0.999903 -0.019568 -0.0963891 -0 3.09165e-08 0 0 0 0 0 1.50702e-05 2.26053e-05
208 2 0.6 0.8 0 0 0 0 -2.02832e-07 -1.58717 0 0.04 0.999903 -0.10528 -0.35543 -0 2.17952e-08 0 0 0 0 0 1.50702e-05 2.26053e-05
209 2 0.8 0.8 0 0 0 0 -4.43279e-07 -1.58717 0 0.04 0.999903 -0.10528 -0.35543 -0 -4.70125e-08 0 0 0 0 0 1.50702e-05 2.26053e-05
159 2 1 0.6 0 0 0 0 5.24507e-07 -0.291966 0 0.04 0.999903 -0.019568 -0.096389 -0 -3.42091e-08 0 0 0 0 0 0.0226053 0.0150702
160 2 1.2 0.6 0 0 0 0 0.00955896 -0.291967 0 0.04 0.999903 -0.0157445 -0.096389 -0 -5.47299e-09 0 0 0 0 0 1.50702e-05 2.26053e-05
161 2 1.4 0.6 0 0 0 0 1.0302e-07 -0.291967 0 0.04 0.999903 -0.0195679 -0.096389 -0 -7.27969e-08 0 0 0 0 0 0.0226053 0.0150702
210 2 1 0.8 0 0 0 0 8.94818e-08 -1.58717 0 0.04 0.999903 -0.105281 -0.35543 -0 -1.28946e-08 0 0 0 0 0 2.26053e-05 1.50702e-05
211 2 1.2 0.8 0 0 0 0 0.00955825 -1.58717 0 0.04 0.999903 -0.101457 -0.35543 -0 -5.41542e-08 0 0 0 0 0 1.50702e-05 2.26053e-05
212 2 1.4 0.8 0 0 0 0 -1.22216e-07 -1.58717 0 0.04 0.999903 -0.105281 -0.35543 -0 2.14893e-08 0 0 0 0 0 2.26053e-05 1.50702e-05
162 2 1.6 0.6 0 0 0 0 3.12716e-07 -0.291967 0 0.04 0.999903 -0.019568 -0.096389 -0 5.65457e-09 0 0 0 0 0 1.50702e-05 2.26053e-05
163 2 1.8 0.6 0 0 0 0 5.93265e-07 -0.291967 0 0.04 0.999903 -0.019568 -0.096389 -0 -6.7596e-09 0 0 0 0 0 1.50702e-05 2.26053e-05
213 2 1.6 0.8 0 0 0 0 9.40057e-08 -1.58717 0 0.04 0.999903 -0.105281 -0.35543 -0 -3.33975e-08 0 0 0 0 0 1.50702e-05 2.26053e-05
214 2 1.8 0.8 0 0 0 0 -1.56023e-06 -1.58717 0 0.04 0.999903 -0.105281 -0.35543 -0 4.46261e-08 0 0 0 0 0 1.50702e-05 2.26053e-05
164 2 2 0.6 0 0 0 0 -0.00955863 -0.291967 0 0.04 0.999903 -0.0157446 -0.0963891 -0 1.7015e-09 0 0 0 0 0 0.0226053 0.0150702
165 2 2.2 0.6 0 0 0 0 0.00955864 -0.291967 0 0.04 0.999903 -0.0157447 -0.0963891 -0 2.06605e-08 0 0 0 0 0 1.50702e-05 2.26053e-05
166 2 2.4 0.6 0 0 0 0 0.00955857 -0.291967 0 0.04 0.999903 -0.0157445 -0.0963892 -0 7.968e-08 0 0 0 0 0 0.0226053 0.0150702
215 2 2 0.8 0 0 0 0 -0.00955875 -1.58717 0 0.04 0.999903 -0.101457 -0.35543 -0 8.70489e-09 0 0 0 0 0 2.26053e-05 1.50702e-05
216 2 2.2 0.8 0 0 0 0 0.0095588 -1.58717 0 0.04 0.999903 -0.101457 -0.35543 -0 -3.31527e-08 0 0 0 0 0 1.50702e-05 2.26053e-05
217 2 2.4 0.8 0 0 0 0 0.0095584 -1.58717 0 0.04 0.999903 -0.101457 -0.35543 -0 -1.67228e-08 0 0 0 0 0 2.26053e-05 1.50702e-05
167 2 2.6 0.6 0 0 0 0 2.76488e-07 -0.291966 0 0.04 0.999903 -0.019568 -0.096389 -0 5.33814e-09 0 0 0 0 0 1.50702e-05 2.26053e-05
168 2 2.8 0.6 0 0 0 0 0.00955854 -0.291967 0 0.04 0.999903 -0.0157446 -0.096389 -0 -1.0234e-08 0 0 0 0 0 0.0226053 0.0150702
218 2 2.6 0.8 0 0 0 0 6.02525e-07 -1.58717 0 0.04 0.999903 -0.105281 -0.35543 -0 -6.73343e-08 0 0 0 0 0 1.50702e-05 2.26053e-05
219 2 2.8 0.8 0 0 0 0 0.00955822 -1.58717 0 0.04 0.999903 -0.101457 -0.35543 -0 -3.07106e-09 0 0 0 0 0 2.26053e-05 1.50702e-05
169 2 3 0.6 0 0 0 0 -0.009559 -0.291966 0 0.04 0.999903 -0.0157445 -0.0963891 -0 3.11006e-08 0 0 0 0 0 1.50702e-05 2.26053e-05
170 2 3.2 0.6 0 0 0 0 4.93698e-07 -0.291967 0 0.04 0.999903 -0.0119213 -0.096389 -0 -5.11708e-08 0 0 0 0 0 1.50702e-05 2.26053e-05
220 2 3 0.8 0 0 0 0 -0.00955922 -1.58717 0 0.04 0.999903 -0.101457 -0.35543 -0 2.12619e-08 0 0 0 0 0 1.50702e-05 2.26053e-05
221 2 3.2 0.8 0 0 0 0 4.6689e-07 -1.58717 0 0.04 0.999903 -0.0976337 -0.35543 -0 4.13226e-08 0 0 0 0 0 1.50702e-05 2.26053e-05
171 2 3.4 0.6 0 0 0 0 0.00955772 -0.291967 0 0.04 0.999903 -0.0157446 -0.096389 -0 2.18417e-08 0 0 0 0 0 0.0226053 0.0150702
172 2 3.6 0.6 0 0 0 0 -0.00955819 -0.291967 0 0.04 0.999903 -0.0157447 -0.096389 -0 -1.30328e-08 0 0 0 0 0 1.50702e-05 2.26053e-05
173 2 3.8 0.6 0 0 0 0 5.74942e-07 -0.291967 0 0.04 0.999903 -0.0195681 -0.0963892 -0 -5.26553e-08 0 0 0 0 0 0.0226053 0.0150702
222 2 3.4 0.8 0 0 0 0 0.00955855 -1.58717 0 0.04 0.999903 -0.101457 -0.35543 -0 -9.98104e-09 0 0 0 0 0 2.26053e-05 1.50702e-05
223 2 3.6 0.8 0 0 0 0 -0.00955803 -1.58717 0 0.04 0.999903 -0.101457 -0.35543 -0 -3.09912e-08 0 0 0 0 0 1.50702e-05 2.26053e-05
224 2 3.8 0.8 0 0 0 0 2.75938e-07 -1.58717 0 0.04 0.999903 -0.105281 -0.35543 -0 4.74817e-09 0 0 0 0 0 2.26053e-05 1.50702e-05
174 2 4 0.6 0 0 0 0 -0.00955867 -0.291966 0 0.04 0.999903 -0.0157447 -0.0963891 -0 -3.81177e-08 0 0 0 0 0 1.50702e-05 2.26053e-05
175 2 4.2 0.6 0 0 0 0 -5.29948e-07 -0.291967 0 0.04 0.999903 -0.0119212 -0.096389 -0 3.0801e-08 0 0 0 0 0 1.50702e-05 2.26053e-05
225 2 4 0.8 0 0 0 0 -0.00955835 -1.58717 0 0.04 0.999903 -0.101457 -0.35543 -0 -3.85364e-08 0 0 0 0 0 1.50702e-05 2.26053e-05
226 2 4.2 0.8 0 0 0 0 3.71364e-07 -1.58717 0 0.04 0.999903 -0.0976338 -0.35543 -0 -3.41993e-08 0 0 0 0 0 1.50702e-05 2.26053e-05
176 2 4.4 0.6 0 0 0 0 0.00955858 -0.291967 0 0.04 0.999903 -0.0157446 -0.0963891 -0 -8.9412e-09 0 0 0 0 0 0.0226053 0.0150702
177 2 4.6 0.6 0 0 0 0 0.0095588 -0.291966 0 0.04 0.999903 -0.0157445 -0.0963891 -0 8.77463e-08 0 0 0 0 0 1.50702e-05 2.26053e-05
178 2 4.8 0.6 0 0 0 0 0.00955764 -0.291967 0 0.04 0.999903 -0.0157445 -0.0963891 -0 -1.56243e-08 0 0 0 0 0 0.0226053 0.0150702
227 2 4.4 0.8 0 0 0 0 0.00955791 -1.58717 0 0.04 0.999903 -0.101457 -0.35543 -0 -4.49284e-08 0 0 0 0 0 2.26053e-05 1.50702e-05
228 2 4.6 0.8 0 0 0 0 0.00955799 -1.58717 0 0.04 0.999903 -0.101457 -0.35543 -0 -1.37867e-08 0 0 0 0 0 1.50702e-05 2.26053e-05
229 2 4.8 0.8 0 0 0 0 0.00955844 -1.58717 0 0.04 0.999903 -0.101457 -0.35543 -0 -1.59777e-08 0 0 0 0 0 2.26053e-05 1.50702e-05
179 2 5 0.6 0 0 0 0 -0.00955854 -0.291967 0 0.04 0.999903 -0.0157445 -0.096389 -0 2.92662e-08 0 0 0 0 0 1.50702e-05 2.26053e-05
180 2 5.2 0.6 0 0 0 0 3.45781e-07 -0.291967 0 0.04 0.999903 -0.0119212 -0.0963891 -0 -5.90396e-09 0 0 0 0 0 1.50702e-05 2.26053e-05
230 2 5 0.8 0 0 0 0 -0.00955847 -1.58717 0 0.04 0.999903 -0.101457 -0.35543 -0 -3.22509e-08 0 0 0 0 0 1.50702e-05 2.26053e-05
231 2 5.2 0.8 0 0 0 0 2.12932e-08 -1.58717 0 0.04 0.999903 -0.0976339 -0.35543 -0 -4.93572e-09 0 0 0 0 0 1.50702e-05 2.26053e-05
181 2 5.4 0.6 0 0 0 0 5.85319e-08 -0.291967 0 0.04 0.999903 -0.0119212 -0.0963891 -0 -6.21789e-08 0 0 0 0 0 0.0226053 0.0150702
182 2 5.6 0.6 0 0 0 0 -5.58548e-07 -0.291967 0 0.04 0.999903 -0.0119211 -0.0963891 -0 3.12209e-08 0 0 0 0 0 1.50702e-05 2.26053e-05
183 2 5.8 0.6 0 0 0 0 0.00955846 -0.291966 0 0.04 0.999903 -0.0157446 -0.0963891 -0 -2.95036e-08 0 0 0 0 0 0.0226053 0.0150702
232 2 5.4 0.8 0 0 0 0 -6.30915e-08 -1.58717 0 0.04 0.999903 -0.0976337 -0.35543 -0 -5.45171e-08 0 0 0 0 0 2.26053e-05 1.50702e-05
233 2 5.6 0.8 0 0 0 0 2.837e-08 -1.58717 0 0.04 0.999903 -0.0976338 -0.35543 -0 3.06429e-08 0 0 0 0 0 1.50702e-05 2.26053e-05
234 2 5.8 0.8 0 0 0 0 0.00955814 -1.58717 0 0.04 0.999903 -0.101457 -0.35543 -0 -2.23375e-08 0 0 0 0 0 2.26053e-05 1.50702e-05
184 2 6 0.6 0 0 0 0 -0.00955844 -0.291967 0 0.04 0.999903 -0.0157444 -0.096389 -0 1.45198e-08 0 0 0 0 0 1.50702e-05 2.26053e-05
185 2 6.2 0.6 0 0 0 0 -7.55289e-07 -0.291968 0 0.04 0.999903 -0.0119213 -0.096389 -0 -5.09239e-08 0 0 0 0 0 0.0226053 0.0150702
235 2 6 0.8 0 0 0 0 -0.00955782 -1.58717 0 0.04 0.999903 -0.101457 -0.35543 -0 9.45653e-08 0 0 0 0 0 1.50702e-05 2.26053e-05
236 2 6.2 0.8 0 0 0 0 -3.05279e-07 -1.58717 0 0.04 0.999903 -0.0976337 -0.35543 -0 7.06651e-08 0 0 0 0 0 2.26053e-05 1.50702e-05
186 2 6.4 0.6 0 0 0 0 1.03075e-06 -0.291968 0 0.04 0.999903 -0.0119211 -0.096389 -0 2.64736e-08 0 0 0 0 0 1.50702e-05 2.26053e-05
187 2 6.6 0.6 0 0 0 0 -4.16298e-07 -0.291966 0 0.04 0.999903 -0.0119211 -0.0963891 -0 2.00768e-08 0 0 0 0 0 1.50702e-05 2.26053e-05
237 2 6.4 0.8 0 0 0 0 -1.46307e-07 -1.58717 0 0.04 0.999903 -0.0976337 -0.35543 -0 -4.66466e-08 0 0 0 0 0 1.50702e-05 2.26053e-05
238 2 6.6 0.8 0 0 0 0 -4.27457e-07 -1.58717 0 0.04 0.999903 -0.0976338 -0.35543 -0 -4.74047e-10 0 0 0 0 0 1.50702e-05 2.26053e-05
188 2 6.8 0.6 0 0 0 0 0.00955786 -0.291967 0 0.04 0.999903 -0.0157447 -0.0963892 -0 -3.6996e-08 0 0 0 0 0 0.0226053 0.0150702
189 2 7 0.6 0 0 0 0 -0.0095577 -0.291967 0 0.04 0.999903 -0.0157445 -0.0963891 -0 3.77888e-08 0 0 0 0 0 1.50702e-05 2.26053e-05
190 2 7.2 0.6 0 0 0 0 4.82791e-08 -0.291967 0 0.04 0.999903 -0.0119213 -0.096389 -0 3.14375e-08 0 0 0 0 0 0.0226053 0.0150702
239 2 6.8 0.8 0 0 0 0 0.00955776 -1.58717 0 0.04 0.999903 -0.101457 -0.35543 -0 -1.29433e-08 0 0 0 0 0 2.26053e-05 1.50702e-05
240 2 7 0.8 0 0 0 0 -0.00955872 -1.58717 0 0.04 0.999903 -0.101457 -0.35543 -0 3.01488e-09 0 0 0 0 0 1.50702e-05 2.26053e-05
241 2 7.2 0.8 0 0 0 0 2.60947e-07 -1.58717 0 0.04 0.999903 -0.0976337 -0.35543 -0 2.68558e-08 0 0 0 0 0 2.26053e-05 1.50702e-05
191 2 7.4 0.6 0 0 0 0 -0.0095583 -0.291967 0 0.04 0.999903 -0.0157446 -0.0963889 -0 -6.14945e-08 0 0 0 0 0 1.50702e-05 2.26053e-05
192 2 7.6 0.6 0 0 0 0 2.05925e-07 -0.291967 0 0.04 0.999903 -0.0119212 -0.096389 -0 1.84459e-08 0 0 0 0 0 1.50702e-05 2.26053e-05