ITEM: TIMESTEP
0
ITEM: NUMBER OF ATOMS
2500
ITEM: BOX BOUNDS pp pp pp
0.0000000000000000e+00 1.0000000000000000e+01
0.0000000000000000e+00 1.0000000000000000e+01
0.0000000000000000e+00 2.0000000000000001e-01
ITEM: ATOMS id type x y z vx vy vz fx fy fz
1 1 0 0 0 0 0 0 0.339306 25.1744 0
2 1 0.2 0 0 0 0 0 4.97053 -12.6643 0
3 1 0.4 0 0 0 0 0 -4.76532 -4.40167 0
51 1 0 0.2 0 0 0 0 -0.966074 32.3335 0
52 1 0.2 0.2 0 0 0 0 13.021 -5.8784 0
53 1 0.4 0.2 0 0 0 0 -13.8713 16.893 0
101 1 0 0.4 0 0 0 0 -10.3028 -18.8161 0
102 1 0.2 0.4 0 0 0 0 9.95803 -35.6881 0
103 1 0.4 0.4 0 0 0 0 -0.497332 18.9214 0
4 1 0.6 0 0 0 0 0 -21.9892 5.64626 0
5 1 0.8 0 0 0 0 0 9.87274 1.97202 0
54 1 0.6 0.2 0 0 0 0 23.5304 2.363 0
55 1 0.8 0.2 0 0 0 0 5.45971 5.70139 0
104 1 0.6 0.4 0 0 0 0 3.43663 -16.3661 0
105 1 0.8 0.4 0 0 0 0 8.85798 -3.90607 0
6 1 1 0 0 0 0 0 4.6481 -11.9115 0
7 1 1.2 0 0 0 0 0 -6.2151 17.3319 0
8 1 1.4 0 0 0 0 0 -1.63686 -22.9398 0
56 1 1 0.2 0 0 0 0 -10.846 12.9221 0
57 1 1.2 0.2 0 0 0 0 -6.69279 -11.6056 0
58 1 1.4 0.2 0 0 0 0 12.6072 -11.881 0
106 1 1 0.4 0 0 0 0 -12.1162 -46.84 0
107 1 1.2 0.4 0 0 0 0 4.98032 -3.56404 0
108 1 1.4 0.4 0 0 0 0 -17.0065 -6.24523 0
9 1 1.6 0 0 0 0 0 4.69151 0.518597 0
10 1 1.8 0 0 0 0 0 -20.9169 -6.11806 0
59 1 1.6 0.2 0 0 0 0 15.7119 1.99051 0
60 1 1.8 0.2 0 0 0 0 -1.94444 4.06277 0
109 1 1.6 0.4 0 0 0 0 -19.6236 19.2395 0
110 1 1.8 0.4 0 0 0 0 11.7782 18.0417 0
11 1 2 0 0 0 0 0 11.3541 -16.1818 0
12 1 2.2 0 0 0 0 0 -1.25281 -0.791524 0
13 1 2.4 0 0 0 0 0 -25.3527 18.587 0
61 1 2 0.2 0 0 0 0 18.1475 -9.32527 0
62 1 2.2 0.2 0 0 0 0 1.67662 1.94252 0
63 1 2.4 0.2 0 0 0 0 -14.3214 13.4343 0
111 1 2 0.4 0 0 0 0 17.5856 -7.02488 0
112 1 2.2 0.4 0 0 0 0 -6.15642 -7.95866 0
113 1 2.4 0.4 0 0 0 0 7.48511 -15.8777 0
14 1 2.6 0 0 0 0 0 -12.6171 -2.80629 0
15 1 2.8 0 0 0 0 0 -9.31123 10.34 0
64 1 2.6 0.2 0 0 0 0 -7.06912 4.86033 0
65 1 2.8 0.2 0 0 0 0 -13.153 3.26442 0
114 1 2.6 0.4 0 0 0 0 -5.12275 7.96295 0
115 1 2.8 0.4 0 0 0 0 -7.35231 -6.0162 0
16 1 3 0 0 0 0 0 -4.17539 5.40726 0
17 1 3.2 0 0 0 0 0 26.105 3.36892 0
18 1 3.4 0 0 0 0 0 -0.220112 -0.792484 0
66 1 3 0.2 0 0 0 0 53.1302 5.2205 0
67 1 3.2 0.2 0 0 0 0 1.43573 26.7793 0
68 1 3.4 0.2 0 0 0 0 -15.9421 3.85026 0
116 1 3 0.4 0 0 0 0 14.887 27.1962 0
117 1 3.2 0.4 0 0 0 0 -32.5864 -2.35884 0
118 1 3.4 0.4 0 0 0 0 21.2442 7.65117 0
19 1 3.6 0 0 0 0 0 20.6623 -3.95025 0
20 1 3.8 0 0 0 0 0 8.77644 -4.1165 0
69 1 3.6 0.2 0 0 0 0 17.0128 23.7834 0
70 1 3.8 0.2 0 0 0 0 -20.2811 8.58093 0
119 1 3.6 0.4 0 0 0 0 -12.7855 -6.34679 0
120 1 3.8 0.4 0 0 0 0 1.58112 -9.15461 0
21 1 4 0 0 0 0 0 21.7131 0.0988293 0
22 1 4.2 0 0 0 0 0 -5.14539 -13.8058 0
23 1 4.4 0 0 0 0 0 6.70328 3.46043 0
71 1 4 0.2 0 0 0 0 10.0769 -4.24244 0
72 1 4.2 0.2 0 0 0 0 -7.95641 6.61785 0
73 1 4.4 0.2 0 0 0 0 -11.3636 -0.523633 0
121 1 4 0.4 0 0 0 0 17.6234 -8.95995 0
122 1 4.2 0.4 0 0 0 0 -4.89751 13.2737 0
123 1 4.4 0.4 0 0 0 0 10.4574 -3.55324 0
24 1 4.6 0 0 0 0 0 15.6006 -24.0405 0
25 1 4.8 0 0 0 0 0 -5.32009 -0.910014 0
74 1 4.6 0.2 0 0 0 0 5.38766 22.3256 0
75 1 4.8 0.2 0 0 0 0 11.4558 6.22545 0
124 1 4.6 0.4 0 0 0 0 -11.5736 26.3723 0
125 1 4.8 0.4 0 0 0 0 -4.33434 7.12588 0
26 1 5 0 0 0 0 0 20.4993 -12.5681 0
27 1 5.2 0 0 0 0 0 -16.0434 -1.41903 0
28 1 5.4 0 0 0 0 0 -13.1836 4.21379 0
76 1 5 0.2 0 0 0 0 -18.3414 21.3881 0
77 1 5.2 0.2 0 0 0 0 3.4757 -1.56168 0
78 1 5.4 0.2 0 0 0 0 -8.56477 -6.45077 0
126 1 5 0.4 0 0 0 0 6.61194 -7.60442 0
127 1 5.2 0.4 0 0 0 0 30.3117 11.9402 0
128 1 5.4 0.4 0 0 0 0 17.0951 18.7471 0
29 1 5.6 0 0 0 0 0 2.71432 14.0237 0
30 1 5.8 0 0 0 0 0 10.9242 21.8076 0
79 1 5.6 0.2 0 0 0 0 -10.7629 18.5789 0
80 1 5.8 0.2 0 0 0 0 16.8532 -11.1228 0
129 1 5.6 0.4 0 0 0 0 -5.12964 15.9071 0
130 1 5.8 0.4 0 0 0 0 10.9412 18.5548 0
31 1 6 0 0 0 0 0 -10.2462 1.50438 0
32 1 6.2 0 0 0 0 0 -4.11431 5.15493 0
33 1 6.4 0 0 0 0 0 -19.4156 -13.3646 0
81 1 6 0.2 0 0 0 0 0.361857 8.95875 0
82 1 6.2 0.2 0 0 0 0 3.3481 -13.2207 0
83 1 6.4 0.2 0 0 0 0 -5.4278 23.5584 0
131 1 6 0.4 0 0 0 0 -12.5744 -15.5677 0
132 1 6.2 0.4 0 0 0 0 -13.6054 2.10655 0
133 1 6.4 0.4 0 0 0 0 -16.4692 11.7173 0
34 1 6.6 0 0 0 0 0 12.1407 0.138956 0
35 1 6.8 0 0 0 0 0 20.0768 -13.2303 0
84 1 6.6 0.2 0 0 0 0 7.24039 5.13413 0
85 1 6.8 0.2 0 0 0 0 23.3259 10.996 0
134 1 6.6 0.4 0 0 0 0 20.5471 23.844 0
135 1 6.8 0.4 0 0 0 0 -4.66939 -7.13868 0
36 1 7 0 0 0 0 0 12.949 -11.4942 0
37 1 7.2 0 0 0 0 0 -9.65407 4.6858 0
38 1 7.4 0 0 0 0 0 16.28 -1.51519 0
86 1 7 0.2 0 0 0 0 -12.5258 -11.3629 0
87 1 7.2 0.2 0 0 0 0 -10.2124 1.18204 0
88 1 7.4 0.2 0 0 0 0 2.5552 11.5848 0
136 1 7 0.4 0 0 0 0 8.38913 23.1505 0
137 1 7.2 0.4 0 0 0 0 1.23923 9.92388 0
138 1 7.4 0.4 0 0 0 0 16.2052 -16.6329 0
39 1 7.6 0 0 0 0 0 20.5755 5.73567 0
40 1 7.8 0 0 0 0 0 -0.55419 13.3344 0
89 1 7.6 0.2 0 0 0 0 -5.90609 8.19274 0
90 1 7.8 0.2 0 0 0 0 3.56506 -5.62018 0
139 1 7.6 0.4 0 0 0 0 -7.24989 19.1285 0
140 1 7.8 0.4 0 0 0 0 16.8191 -9.30618 0
41 1 8 0 0 0 0 0 -2.4094 -14.6471 0
42 1 8.2 0 0 0 0 0 4.48792 2.83901 0
43 1 8.4 0 0 0 0 0 11.8956 9.43581 0
91 1 8 0.2 0 0 0 0 -25.3928 10.8683 0
92 1 8.2 0.2 0 0 0 0 -33.9885 15.6431 0
93 1 8.4 0.2 0 0 0 0 11.0897 20.9133 0
141 1 8 0.4 0 0 0 0 -8.53851 -7.59276 0
142 1 8.2 0.4 0 0 0 0 6.15462 11.4392 0
143 1 8.4 0.4 0 0 0 0 -15.2853 -7.16492 0
44 1 8.6 0 0 0 0 0 -6.82499 -9.46536 0
45 1 8.8 0 0 0 0 0 -7.49043 21.3223 0
94 1 8.6 0.2 0 0 0 0 3.33541 18.5872 0
95 1 8.8 0.2 0 0 0 0 6.67554 -20.0617 0
144 1 8.6 0.4 0 0 0 0 -2.9626 -16.4141 0
145 1 8.8 0.4 0 0 0 0 0.287806 -3.81386 0
46 1 9 0 0 0 0 0 -0.477753 4.89181 0
47 1 9.2 0 0 0 0 0 -17.1523 -18.0428 0
48 1 9.4 0 0 0 0 0 17.613 -8.23576 0
96 1 9 0.2 0 0 0 0 25.0051 21.3068 0
97 1 9.2 0.2 0 0 0 0 -3.02475 29.0248 0
98 1 9.4 0.2 0 0 0 0 -11.7404 -25.531 0
146 1 9 0.4 0 0 0 0 7.88522 -29.2728 0
147 1 9.2 0.4 0 0 0 0 -7.84517 17.4917 0
148 1 9.4 0.4 0 0 0 0 -18.4659 12.3368 0
49 1 9.6 0 0 0 0 0 3.09505 11.3105 0
50 1 9.8 0 0 0 0 0 -1.31756 -11.2292 0
99 1 9.6 0.2 0 0 0 0 -6.1441 -8.95347 0
100 1 9.8 0.2 0 0 0 0 20.4038 -5.82125 0
149 1 9.6 0.4 0 0 0 0 14.5723 -15.1921 0
150 1 9.8 0.4 0 0 0 0 9.60796 10.5008 0
151 1 0 0.6 0 0 0 0 1.63776 2.28194 0
152 1 0.2 0.6 0 0 0 0 -7.35269 9.55997 0
153 1 0.4 0.6 0 0 0 0 21.0604 -2.98611 0
201 1 0 0.8 0 0 0 0 25.643 6.19152 0
202 1 0.2 0.8 0 0 0 0 -11.4346 19.4311 0
203 1 0.4 0.8 0 0 0 0 -0.869397 4.62734 0
154 1 0.6 0.6 0 0 0 0 11.6366 23.7498 0
155 1 0.8 0.6 0 0 0 0 -41.9818 -0.596875 0
204 1 0.6 0.8 0 0 0 0 3.9921 -4.92074 0
205 1 0.8 0.8 0 0 0 0 -4.93746 9.46728 0
156 1 1 0.6 0 0 0 0 10.8968 28.9741 0
157 1 1.2 0.6 0 0 0 0 7.41908 0.780164 0
158 1 1.4 0.6 0 0 0 0 0.767275 -0.680263 0
206 1 1 0.8 0 0 0 0 27.4737 -3.10133 0
207 1 1.2 0.8 0 0 0 0 9.321 21.4197 0
208 1 1.4 0.8 0 0 0 0 8.962 -8.56 0
159 1 1.6 0.6 0 0 0 0 -5.9978 7.17708 0
160 1 1.8 0.6 0 0 0 0 -8.73743 -25.5528 0
209 1 1.6 0.8 0 0 0 0 6.82869 -8.11194 0
210 1 1.8 0.8 0 0 0 0 -8.30008 -15.9144 0
161 1 2 0.6 0 0 0 0 -1.26789 17.7666 0
162 1 2.2 0.6 0 0 0 0 9.05714 -8.02855 0
163 1 2.4 0.6 0 0 0 0 -20.6419 9.43127 0
211 1 2 0.8 0 0 0 0 -31.2884 8.54329 0
212 1 2.2 0.8 0 0 0 0 -5.87643 20.4447 0
213 1 2.4 0.8 0 0 0 0 9.42247 9.15511 0
164 1 2.6 0.6 0 0 0 0 16.5349 -29.944 0
165 1 2.8 0.6 0 0 0 0 13.0506 25.5795 0
214 1 2.6 0.8 0 0 0 0 -18.0465 -15.45 0
215 1 2.8 0.8 0 0 0 0 -4.28925 -12.7995 0
166 1 3 0.6 0 0 0 0 -6.41651 1.85055 0
167 1 3.2 0.6 0 0 0 0 12.3894 -18.4058 0
168 1 3.4 0.6 0 0 0 0 -8.26794 7.25332 0
216 1 3 0.8 0 0 0 0 33.0831 -6.07746 0
217 1 3.2 0.8 0 0 0 0 -28.0349 -9.46714 0
218 1 3.4 0.8 0 0 0 0 21.4388 22.2676 0
169 1 3.6 0.6 0 0 0 0 -9.81246 4.65527 0
170 1 3.8 0.6 0 0 0 0 10.2066 -2.33782 0
219 1 3.6 0.8 0 0 0 0 14.7741 -12.6218 0
220 1 3.8 0.8 0 0 0 0 11.9769 -10.6003 0
171 1 4 0.6 0 0 0 0 2.26297 -1.1665 0
172 1 4.2 0.6 0 0 0 0 -20.0921 -2.28946 0
173 1 4.4 0.6 0 0 0 0 17.7408 19.3843 0
221 1 4 0.8 0 0 0 0 -32.023 0.464386 0
222 1 4.2 0.8 0 0 0 0 -11.3513 21.731 0
223 1 4.4 0.8 0 0 0 0 -8.25304 -16.4829 0
174 1 4.6 0.6 0 0 0 0 -1.82754 -10.4199 0
175 1 4.8 0.6 0 0 0 0 8.42149 -16.8208 0
224 1 4.6 0.8 0 0 0 0 3.66455 7.02668 0
225 1 4.8 0.8 0 0 0 0 -2.83398 -17.2591 0
176 1 5 0.6 0 0 0 0 8.31147 -5.45105 0
177 1 5.2 0.6 0 0 0 0 -0.525908 -18.6921 0
178 1 5.4 0.6 0 0 0 0 19.8256 21.3821 0
226 1 5 0.8 0 0 0 0 44.6038 -10.6377 0
227 1 5.2 0.8 0 0 0 0 -1.7881 -5.66499 0
228 1 5.4 0.8 0 0 0 0 -40.5659 13.9888 0
179 1 5.6 0.6 0 0 0 0 -37.4944 -13.5669 0
180 1 5.8 0.6 0 0 0 0 4.44237 -17.8744 0
229 1 5.6 0.8 0 0 0 0 -21.0777 -23.6247 0
230 1 5.8 0.8 0 0 0 0 -3.95236 -39.3013 0
181 1 6 0.6 0 0 0 0 17.4419 23.7588 0
182 1 6.2 0.6 0 0 0 0 2.267 10.7723 0
183 1 6.4 0.6 0 0 0 0 -12.234 -8.58154 0
231 1 6 0.8 0 0 0 0 -2.87844 3.61611 0
232 1 6.2 0.8 0 0 0 0 14.0043 -7.49503 0
233 1 6.4 0.8 0 0 0 0 10.3629 -3.80268 0
184 1 6.6 0.6 0 0 0 0 -24.256 -21.0439 0
185 1 6.8 0.6 0 0 0 0 40.5301 -22.904 0
234 1 6.6 0.8 0 0 0 0 -25.8532 23.8294 0
235 1 6.8 0.8 0 0 0 0 16.9945 6.35433 0
186 1 7 0.6 0 0 0 0 -5.97714 -7.67824 0
187 1 7.2 0.6 0 0 0 0 -8.42562 22.1021 0
188 1 7.4 0.6 0 0 0 0 25.5793 -23.6136 0
236 1 7 0.8 0 0 0 0 -20.8518 -30.9592 0
237 1 7.2 0.8 0 0 0 0 -6.98693 -0.484744 0
238 1 7.4 0.8 0 0 0 0 9.05508 13.9598 0
189 1 7.6 0.6 0 0 0 0 1.86385 -23.8714 0
190 1 7.8 0.6 0 0 0 0 -4.03258 -1.90956 0
239 1 7.6 0.8 0 0 0 0 -28.5661 2.55237 0
240 1 7.8 0.8 0 0 0 0 9.44702 12.4048 0
191 1 8 0.6 0 0 0 0 13.5629 0.593424 0
192 1 8.2 0.6 0 0 0 0 -15.7075 6.51361 0
193 1 8.4 0.6 0 0 0 0 -3.28937 -0.116866 0
241 1 8 0.8 0 0 0 0 -18.9299 -3.48255 0
242 1 8.2 0.8 0 0 0 0 -16.9366 5.34404 0
243 1 8.4 0.8 0 0 0 0 -0.38236 7.36926 0
194 1 8.6 0.6 0 0 0 0 25.663 15.141 0
195 1 8.8 0.6 0 0 0 0 8.08386 -11.5427 0
244 1 8.6 0.8 0 0 0 0 10.1513 -7.6438 0
245 1 8.8 0.8 0 0 0 0 11.9517 -11.6443 0
196 1 9 0.6 0 0 0 0 -11.2231 9.41865 0
197 1 9.2 0.6 0 0 0 0 -6.22138 10.4208 0
198 1 9.4 0.6 0 0 0 0 -21.4996 -2.48309 0
246 1 9 0.8 0 0 0 0 -1.41278 -8.76418 0
247 1 9.2 0.8 0 0 0 0 15.1738 -11.5528 0
248 1 9.4 0.8 0 0 0 0 -11.2866 0.457346 0
199 1 9.6 0.6 0 0 0 0 10.159 -5.64654 0
200 1 9.8 0.6 0 0 0 0 -15.8127 -6.29218 0
249 1 9.6 0.8 0 0 0 0 9.36727 19.2696 0
250 1 9.8 0.8 0 0 0 0 -1.75042 -3.9425 0
251 1 0 1 0 0 0 0 12.2323 13.289 0
252 1 0.2 1 0 0 0 0 16.4378 2.96128 0
253 1 0.4 1 0 0 0 0 -28.9546 -3.95368 0
301 1 0 1.2 0 0 0 0 8.92886 -26.9717 0
302 1 0.2 1.2 0 0 0 0 10.1203 1.44145 0
303 1 0.4 1.2 0 0 0 0 -18.0912 -46.1441 0
351 1 0 1.4 0 0 0 0 -27.3579 3.17076 0
352 1 0.2 1.4 0 0 0 0 8.54004 -24.3858 0
353 1 0.4 1.4 0 0 0 0 -19.8409 -1.21585 0
254 1 0.6 1 0 0 0 0 -25.7718 -35.1682 0
255 1 0.8 1 0 0 0 0 2.01376 -10.2611 0
304 1 0.6 1.2 0 0 0 0 5.35666 28.8669 0
305 1 0.8 1.2 0 0 0 0 2.57211 25.4908 0
354 1 0.6 1.4 0 0 0 0 9.12261 -0.568423 0
355 1 0.8 1.4 0 0 0 0 -12.035 -29.7362 0
256 1 1 1 0 0 0 0 -0.550847 -25.64 0
257 1 1.2 1 0 0 0 0 10.1753 -29.8052 0
258 1 1.4 1 0 0 0 0 -26.4221 -1.4987 0
306 1 1 1.2 0 0 0 0 -14.198 -10.548 0
307 1 1.2 1.2 0 0 0 0 24.7862 10.4817 0
308 1 1.4 1.2 0 0 0 0 -11.4182 1.61718 0
356 1 1 1.4 0 0 0 0 -0.180037 26.3014 0
357 1 1.2 1.4 0 0 0 0 0.33161 2.62733 0
358 1 1.4 1.4 0 0 0 0 -31.3157 -15.2338 0
259 1 1.6 1 0 0 0 0 19.2553 14.7575 0
260 1 1.8 1 0 0 0 0 16.1161 -17.8402 0
309 1 1.6 1.2 0 0 0 0 2.05226 -1.33522 0
310 1 1.8 1.2 0 0 0 0 -5.4976 0.209078 0
359 1 1.6 1.4 0 0 0 0 -2.46781 -6.33622 0
360 1 1.8 1.4 0 0 0 0 -11.9144 -18.5112 0
261 1 2 1 0 0 0 0 1.84316 -4.95503 0
262 1 2.2 1 0 0 0 0 2.94797 5.86362 0
263 1 2.4 1 0 0 0 0 -2.21486 16.055 0
311 1 2 1.2 0 0 0 0 -2.252 5.18564 0
312 1 2.2 1.2 0 0 0 0 8.86676 -4.29455 0
313 1 2.4 1.2 0 0 0 0 19.7376 -23.0772 0
361 1 2 1.4 0 0 0 0 -8.68479 7.247 0
362 1 2.2 1.4 0 0 0 0 -15.205 6.79584 0
363 1 2.4 1.4 0 0 0 0 4.78114 9.91973 0
264 1 2.6 1 0 0 0 0 -13.7987 -0.368248 0
265 1 2.8 1 0 0 0 0 -4.43836 9.7279 0
314 1 2.6 1.2 0 0 0 0 3.39394 -14.2473 0
315 1 2.8 1.2 0 0 0 0 -2.52997 -10.0808 0
364 1 2.6 1.4 0 0 0 0 1.76451 16.0475 0
365 1 2.8 1.4 0 0 0 0 1.78133 3.56439 0
266 1 3 1 0 0 0 0 -9.16341 8.98955 0
267 1 3.2 1 0 0 0 0 17.5689 -24.4451 0
268 1 3.4 1 0 0 0 0 -4.20853 -14.9365 0
316 1 3 1.2 0 0 0 0 2.7984 6.67324 0
317 1 3.2 1.2 0 0 0 0 0.977435 17.6855 0
318 1 3.4 1.2 0 0 0 0 -6.93264 15.8274 0
366 1 3 1.4 0 0 0 0 -13.1698 -6.95553 0
367 1 3.2 1.4 0 0 0 0 21.2025 -19.4141 0
368 1 3.4 1.4 0 0 0 0 2.18655 2.06853 0
269 1 3.6 1 0 0 0 0 -21.1843 6.84084 0
270 1 3.8 1 0 0 0 0 -2.99658 -5.57264 0
319 1 3.6 1.2 0 0 0 0 -1.5463 -5.11854 0
320 1 3.8 1.2 0 0 0 0 -2.38609 -18.2155 0
369 1 3.6 1.4 0 0 0 0 -29.2875 16.0061 0
370 1 3.8 1.4 0 0 0 0 -6.55613 10.5584 0
271 1 4 1 0 0 0 0 26.4265 -5.51064 0
272 1 4.2 1 0 0 0 0 13.2482 -4.77913 0
273 1 4.4 1 0 0 0 0 -16.7618 -4.20075 0
321 1 4 1.2 0 0 0 0 6.81126 -26.2518 0
322 1 4.2 1.2 0 0 0 0 22.1071 9.46252 0
323 1 4.4 1.2 0 0 0 0 -12.5094 8.27769 0
371 1 4 1.4 0 0 0 0 10.6774 27.9384 0
372 1 4.2 1.4 0 0 0 0 15.4365 -17.9904 0
373 1 4.4 1.4 0 0 0 0 30.7235 -6.45886 0
274 1 4.6 1 0 0 0 0 -3.15905 -23.1154 0
275 1 4.8 1 0 0 0 0 2.51409 -11.3736 0
324 1 4.6 1.2 0 0 0 0 -12.7467 0.559431 0
325 1 4.8 1.2 0 0 0 0 6.81242 34.4834 0
374 1 4.6 1.4 0 0 0 0 -1.96745 17.8801 0
375 1 4.8 1.4 0 0 0 0 -8.49711 -15.4836 0
276 1 5 1 0 0 0 0 -3.83554 -0.407579 0
277 1 5.2 1 0 0 0 0 19.2522 10.4104 0
278 1 5.4 1 0 0 0 0 4.06201 29.2471 0
326 1 5 1.2 0 0 0 0 12.4041 17.7145 0
327 1 5.2 1.2 0 0 0 0 -33.2207 1.18787 0
328 1 5.4 1.2 0 0 0 0 -4.53168 -43.1457 0
376 1 5 1.4 0 0 0 0 16.0555 5.68999 0
377 1 5.2 1.4 0 0 0 0 -32.0128 -0.825987 0
378 1 5.4 1.4 0 0 0 0 -20.3408 -21.9644 0
279 1 5.6 1 0 0 0 0 -5.82574 20.7853 0
280 1 5.8 1 0 0 0 0 -1.18751 10.544 0
329 1 5.6 1.2 0 0 0 0 5.57285 -19.3976 0
330 1 5.8 1.2 0 0 0 0 9.34916 -4.76092 0
379 1 5.6 1.4 0 0 0 0 26.7613 -28.0407 0
380 1 5.8 1.4 0 0 0 0 21.9079 -1.743 0
281 1 6 1 0 0 0 0 -25.8423 14.8221 0
282 1 6.2 1 0 0 0 0 3.56528 -1.62161 0
283 1 6.4 1 0 0 0 0 1.53887 -11.9479 0
331 1 6 1.2 0 0 0 0 0.726293 -15.6272 0
332 1 6.2 1.2 0 0 0 0 -9.89975 19.4596 0
333 1 6.4 1.2 0 0 0 0 2.56002 -7.71727 0
381 1 6 1.4 0 0 0 0 -32.6936 10.304 0
382 1 6.2 1.4 0 0 0 0 -2.03532 -1.80126 0
383 1 6.4 1.4 0 0 0 0 30.4235 -24.1549 0
284 1 6.6 1 0 0 0 0 -21.6451 2.2548 0
285 1 6.8 1 0 0 0 0 27.2837 -1.16719 0
334 1 6.6 1.2 0 0 0 0 10.303 -1.40891 0
335 1 6.8 1.2 0 0 0 0 -21.9394 6.25608 0
384 1 6.6 1.4 0 0 0 0 22.474 11.4128 0
385 1 6.8 1.4 0 0 0 0 -11.1299 -13.1626 0
286 1 7 1 0 0 0 0 19.1709 6.92425 0
287 1 7.2 1 0 0 0 0 -13.9416 17.977 0
288 1 7.4 1 0 0 0 0 9.45095 -2.72076 0
336 1 7 1.2 0 0 0 0 -2.44012 7.59174 0
337 1 7.2 1.2 0 0 0 0 3.18261 -15.8923 0
338 1 7.4 1.2 0 0 0 0 4.52421 43.4501 0
386 1 7 1.4 0 0 0 0 8.32702 8.10586 0
387 1 7.2 1.4 0 0 0 0 5.81472 -17.7365 0
388 1 7.4 1.4 0 0 0 0 -9.25774 -23.52 0
289 1 7.6 1 0 0 0 0 -12.3243 4.13562 0
290 1 7.8 1 0 0 0 0 10.4335 -25.7645 0
339 1 7.6 1.2 0 0 0 0 -19.085 5.18892 0
340 1 7.8 1.2 0 0 0 0 -35.2276 -6.00564 0
389 1 7.6 1.4 0 0 0 0 11.0299 -6.96135 0
390 1 7.8 1.4 0 0 0 0 -4.15762 5.93189 0
291 1 8 1 0 0 0 0 18.7335 -33.9315 0
292 1 8.2 1 0 0 0 0 7.53485 19.8901 0
293 1 8.4 1 0 0 0 0 -13.2605 -18.227 0
341 1 8 1.2 0 0 0 0 7.86621 -6.20573 0
342 1 8.2 1.2 0 0 0 0 38.1632 8.17018 0
343 1 8.4 1.2 0 0 0 0 -9.50216 -12.6318 0
391 1 8 1.4 0 0 0 0 0.0215307 2.99904 0
392 1 8.2 1.4 0 0 0 0 9.44169 -8.63129 0
393 1 8.4 1.4 0 0 0 0 -13.8403 5.8995 0
294 1 8.6 1 0 0 0 0 -6.17335 13.8637 0
295 1 8.8 1 0 0 0 0 -15.0784 -12.8136 0
344 1 8.6 1.2 0 0 0 0 -27.6597 -5.47269 0
345 1 8.8 1.2 0 0 0 0 -0.386416 -8.95521 0
394 1 8.6 1.4 0 0 0 0 19.3433 -3.6947 0
395 1 8.8 1.4 0 0 0 0 -6.35857 2.97963 0
296 1 9 1 0 0 0 0 8.39862 11.9609 0
297 1 9.2 1 0 0 0 0 -16.3512 -9.64475 0
298 1 9.4 1 0 0 0 0 -28.9504 -37.4624 0
346 1 9 1.2 0 0 0 0 15.0203 -1.65252 0
347 1 9.2 1.2 0 0 0 0 -0.247274 -9.98547 0
348 1 9.4 1.2 0 0 0 0 -17.3288 19.4607 0
396 1 9 1.4 0 0 0 0 5.80998 -1.37826 0
397 1 9.2 1.4 0 0 0 0 22.2784 9.30894 0
398 1 9.4 1.4 0 0 0 0 -31.0434 5.61088 0
299 1 9.6 1 0 0 0 0 3.48285 -9.709 0
300 1 9.8 1 0 0 0 0 4.75937 0.952736 0
349 1 9.6 1.2 0 0 0 0 18.2549 -2.70636 0
350 1 9.8 1.2 0 0 0 0 15.116 15.1856 0
399 1 9.6 1.4 0 0 0 0 -6.40673 19.0597 0
400 1 9.8 1.4 0 0 0 0 30.5628 -0.820926 0
401 1 0 1.6 0 0 0 0 -19.3509 -20.3159 0
402 1 0.2 1.6 0 0 0 0 -4.29938 -12.615 0
403 1 0.4 1.6 0 0 0 0 1.78364 24.8854 0
451 1 0 1.8 0 0 0 0 17.6139 8.09529 0
452 1 0.2 1.8 0 0 0 0 -18.71 17.6702 0
453 1 0.4 1.8 0 0 0 0 15.1057 -7.53738 0
404 1 0.6 1.6 0 0 0 0 27.2339 28.1541 0
405 1 0.8 1.6 0 0 0 0 -0.198869 -15.7582 0
454 1 0.6 1.8 0 0 0 0 12.738 2.97152 0
455 1 0.8 1.8 0 0 0 0 -11.392 12.1805 0
406 1 1 1.6 0 0 0 0 9.71873 3.2208 0
407 1 1.2 1.6 0 0 0 0 -0.458173 -2.04172 0
408 1 1.4 1.6 0 0 0 0 11.521 -10.4345 0
456 1 1 1.8 0 0 0 0 15.4729 31.1148 0
457 1 1.2 1.8 0 0 0 0 -15.8695 -22.2241 0
458 1 1.4 1.8 0 0 0 0 11.8841 1.68656 0
409 1 1.6 1.6 0 0 0 0 -16.3161 17.312 0
410 1 1.8 1.6 0 0 0 0 -2.90411 8.69636 0
459 1 1.6 1.8 0 0 0 0 15.3334 18.395 0
460 1 1.8 1.8 0 0 0 0 -33.2052 1.44688 0
411 1 2 1.6 0 0 0 0 -6.03944 18.2151 0
412 1 2.2 1.6 0 0 0 0 38.9172 24.7896 0
413 1 2.4 1.6 0 0 0 0 18.2375 -9.59419 0
461 1 2 1.8 0 0 0 0 8.0771 -6.41797 0
462 1 2.2 1.8 0 0 0 0 20.2164 -25.1589 0
463 1 2.4 1.8 0 0 0 0 -10.3875 2.15634 0
414 1 2.6 1.6 0 0 0 0 -17.0519 6.14963 0
415 1 2.8 1.6 0 0 0 0 -6.54095 -3.09921 0
464 1 2.6 1.8 0 0 0 0 -18.6663 -17.26 0
465 1 2.8 1.8 0 0 0 0 -30.7115 0.876899 0
416 1 3 1.6 0 0 0 0 20.5494 29.1209 0
417 1 3.2 1.6 0 0 0 0 -12.0595 13.9276 0
418 1 3.4 1.6 0 0 0 0 3.39117 -26.9695 0
466 1 3 1.8 0 0 0 0 23.8985 -5.43346 0
467 1 3.2 1.8 0 0 0 0 14.9738 10.1913 0
468 1 3.4 1.8 0 0 0 0 -2.42212 2.87027 0
419 1 3.6 1.6 0 0 0 0 -0.312851 10.0618 0
420 1 3.8 1.6 0 0 0 0 18.8606 -8.39016 0
469 1 3.6 1.8 0 0 0 0 -1.05003 -7.03138 0
470 1 3.8 1.8 0 0 0 0 5.37977 -2.22872 0
421 1 4 1.6 0 0 0 0 -1.54294 -5.48227 0
422 1 4.2 1.6 0 0 0 0 -21.8686 5.38076 0
423 1 4.4 1.6 0 0 0 0 9.66748 -9.09247 0
471 1 4 1.8 0 0 0 0 -19.9732 24.4956 0
472 1 4.2 1.8 0 0 0 0 4.54688 4.51266 0
473 1 4.4 1.8 0 0 0 0 6.59867 6.072 0
424 1 4.6 1.6 0 0 0 0 -4.17898 -11.4254 0
425 1 4.8 1.6 0 0 0 0 4.67745 1.78535 0
474 1 4.6 1.8 0 0 0 0 -21.7051 15.092 0
475 1 4.8 1.8 0 0 0 0 -1.30852 -8.29816 0
426 1 5 1.6 0 0 0 0 35.8649 -9.72044 0
427 1 5.2 1.6 0 0 0 0 -16.9624 -12.2221 0
428 1 5.4 1.6 0 0 0 0 -15.4384 17.6478 0
476 1 5 1.8 0 0 0 0 13.987 16.2074 0
477 1 5.2 1.8 0 0 0 0 13.9163 -8.79867 0
478 1 5.4 1.8 0 0 0 0 19.2653 -23.9443 0
429 1 5.6 1.6 0 0 0 0 -8.47593 18.6902 0
430 1 5.8 1.6 0 0 0 0 15.3511 13.5659 0
479 1 5.6 1.8 0 0 0 0 -2.02323 0.451711 0
480 1 5.8 1.8 0 0 0 0 -9.12832 4.22758 0
431 1 6 1.6 0 0 0 0 -12.0177 2.22833 0
432 1 6.2 1.6 0 0 0 0 -3.40134 -5.24501 0
433 1 6.4 1.6 0 0 0 0 -18.6269 -2.64359 0
481 1 6 1.8 0 0 0 0 23.8045 17.6044 0
482 1 6.2 1.8 0 0 0 0 -13.1871 -7.728 0
483 1 6.4 1.8 0 0 0 0 -11.6035 -16.5556 0
434 1 6.6 1.6 0 0 0 0 7.0204 -10.4677 0
435 1 6.8 1.6 0 0 0 0 -9.4198 -6.63765 0
484 1 6.6 1.8 0 0 0 0 30.2214 -19.9478 0
485 1 6.8 1.8 0 0 0 0 -10.1705 5.23426 0
436 1 7 1.6 0 0 0 0 12.4979 10.3821 0
437 1 7.2 1.6 0 0 0 0 5.0928 -5.60166 0
438 1 7.4 1.6 0 0 0 0 -21.2155 -0.794013 0
486 1 7 1.8 0 0 0 0 -0.635805 -1.51317 0
487 1 7.2 1.8 0 0 0 0 -17.817 31.1366 0
488 1 7.4 1.8 0 0 0 0 5.3274 -19.8146 0
439 1 7.6 1.6 0 0 0 0 -19.8872 11.2028 0
440 1 7.8 1.6 0 0 0 0 12.9925 -10.6427 0
489 1 7.6 1.8 0 0 0 0 5.26492 -7.67988 0
490 1 7.8 1.8 0 0 0 0 13.8441 16.3235 0
441 1 8 1.6 0 0 0 0 9.83935 -12.1804 0
442 1 8.2 1.6 0 0 0 0 -17.5023 38.0192 0
443 1 8.4 1.6 0 0 0 0 -8.07756 6.32665 0
491 1 8 1.8 0 0 0 0 -7.799 -6.55487 0
492 1 8.2 1.8 0 0 0 0 37.6543 -9.17043 0
493 1 8.4 1.8 0 0 0 0 -1.53505 -26.2583 0
444 1 8.6 1.6 0 0 0 0 -20.6752 7.71096 0
445 1 8.8 1.6 0 0 0 0 -2.74955 6.33462 0
494 1 8.6 1.8 0 0 0 0 -1.1246 -27.1845 0
495 1 8.8 1.8 0 0 0 0 -0.381514 6.2718 0
446 1 9 1.6 0 0 0 0 23.0969 9.70432 0
447 1 9.2 1.6 0 0 0 0 25.1592 16.611 0
448 1 9.4 1.6 0 0 0 0 -14.9602 5.86437 0
496 1 9 1.8 0 0 0 0 34.6076 -45.9032 0
497 1 9.2 1.8 0 0 0 0 9.90464 -23.5647 0
498 1 9.4 1.8 0 0 0 0 -8.79802 6.93464 0
449 1 9.6 1.6 0 0 0 0 2.81751 3.34714 0
450 1 9.8 1.6 0 0 0 0 -4.55779 14.3614 0
499 1 9.6 1.8 0 0 0 0 -20.5866 4.99954 0
500 1 9.8 1.8 0 0 0 0 -3.25301 -7.47379 0
501 1 0 2 0 0 0 0 -11.772 10.4738 0
502 1 0.2 2 0 0 0 0 -18.3284 3.04758 0
503 1 0.4 2 0 0 0 0 -27.1319 -17.7505 0
551 1 0 2.2 0 0 0 0 25.4279 1.77349 0
552 1 0.2 2.2 0 0 0 0 5.08937 -9.77192 0
553 1 0.4 2.2 0 0 0 0 15.0306 9.68945 0
601 1 0 2.4 0 0 0 0 -26.3587 -14.3244 0
602 1 0.2 2.4 0 0 0 0 22.4321 27.7943 0
603 1 0.4 2.4 0 0 0 0 -28.5129 6.60678 0
504 1 0.6 2 0 0 0 0 5.68797 -5.2396 0
505 1 0.8 2 0 0 0 0 10.3435 5.46966 0
554 1 0.6 2.2 0 0 0 0 2.53988 18.088 0
555 1 0.8 2.2 0 0 0 0 17.9315 -1.20927 0
604 1 0.6 2.4 0 0 0 0 -9.0576 14.886 0
605 1 0.8 2.4 0 0 0 0 -23.2139 -13.8615 0
506 1 1 2 0 0 0 0 -18.1706 3.37085 0
507 1 1.2 2 0 0 0 0 -28.5069 17.4023 0
508 1 1.4 2 0 0 0 0 -2.86411 10.7787 0
556 1 1 2.2 0 0 0 0 -9.25185 -6.2318 0
557 1 1.2 2.2 0 0 0 0 -1.29262 -9.52151 0
558 1 1.4 2.2 0 0 0 0 26.3245 8.11545 0
606 1 1 2.4 0 0 0 0 -4.64886 -9.99297 0
607 1 1.2 2.4 0 0 0 0 1.58455 -4.70495 0
608 1 1.4 2.4 0 0 0 0 29.6367 -3.57188 0
509 1 1.6 2 0 0 0 0 17.5234 0.0722944 0
510 1 1.8 2 0 0 0 0 -21.057 -9.37076 0
559 1 1.6 2.2 0 0 0 0 -17.4745 -35.3279 0
560 1 1.8 2.2 0 0 0 0 0.424928 -24.4932 0
609 1 1.6 2.4 0 0 0 0 8.01661 21.4522 0
610 1 1.8 2.4 0 0 0 0 -12.918 14.0088 0
511 1 2 2 0 0 0 0 14.4816 10.3883 0
512 1 2.2 2 0 0 0 0 11.6168 5.18695 0
513 1 2.4 2 0 0 0 0 -11.5615 8.14444 0
561 1 2 2.2 0 0 0 0 11.2924 -2.58985 0
562 1 2.2 2.2 0 0 0 0 -8.26959 -18.4126 0
563 1 2.4 2.2 0 0 0 0 14.0569 -18.0855 0
611 1 2 2.4 0 0 0 0 16.0735 -17.6083 0
612 1 2.2 2.4 0 0 0 0 -15.8729 -10.1283 0
613 1 2.4 2.4 0 0 0 0 0.680621 3.75917 0
514 1 2.6 2 0 0 0 0 25.6694 15.0627 0
515 1 2.8 2 0 0 0 0 -12.6944 7.80834 0
564 1 2.6 2.2 0 0 0 0 10.6975 -1.10081 0
565 1 2.8 2.2 0 0 0 0 -29.4213 -6.29572 0
614 1 2.6 2.4 0 0 0 0 1.12422 -8.48467 0
615 1 2.8 2.4 0 0 0 0 -38.7091 2.23162 0
516 1 3 2 0 0 0 0 -6.73483 1.37449 0
517 1 3.2 2 0 0 0 0 -17.0944 -21.2008 0
518 1 3.4 2 0 0 0 0 -4.73708 -1.20257 0
566 1 3 2.2 0 0 0 0 18.2301 -8.57806 0
567 1 3.2 2.2 0 0 0 0 -14.0128 0.181364 0
568 1 3.4 2.2 0 0 0 0 -11.0338 13.7338 0
616 1 3 2.4 0 0 0 0 7.40409 10.9744 0
617 1 3.2 2.4 0 0 0 0 19.3495 12.2211 0
618 1 3.4 2.4 0 0 0 0 10.8983 22.5118 0
519 1 3.6 2 0 0 0 0 -13.0418 4.46077 0
520 1 3.8 2 0 0 0 0 20.9636 5.61769 0
569 1 3.6 2.2 0 0 0 0 -14.346 -22.1292 0
570 1 3.8 2.2 0 0 0 0 11.9758 -26.5186 0
619 1 3.6 2.4 0 0 0 0 -8.15889 19.5142 0
620 1 3.8 2.4 0 0 0 0 25.3745 4.71518 0
521 1 4 2 0 0 0 0 -2.84365 3.05756 0
522 1 4.2 2 0 0 0 0 14.3969 7.23382 0
523 1 4.4 2 0 0 0 0 4.85987 19.3282 0
571 1 4 2.2 0 0 0 0 -11.7228 3.67409 0
572 1 4.2 2.2 0 0 0 0 -4.87681 -2.67027 0
573 1 4.4 2.2 0 0 0 0 19.4591 -13.4826 0
621 1 4 2.4 0 0 0 0 -1.70667 -1.02372 0
622 1 4.2 2.4 0 0 0 0 6.10534 -20.9884 0
623 1 4.4 2.4 0 0 0 0 -21.9575 5.11097 0
524 1 4.6 2 0 0 0 0 7.82971 6.68976 0
525 1 4.8 2 0 0 0 0 -15.8833 16.3439 0
574 1 4.6 2.2 0 0 0 0 7.2135 -5.13307 0
575 1 4.8 2.2 0 0 0 0 -9.87066 5.24172 0
624 1 4.6 2.4 0 0 0 0 23.1423 4.62995 0
625 1 4.8 2.4 0 0 0 0 -18.7565 -14.517 0
526 1 5 2 0 0 0 0 19.6952 2.46111 0
527 1 5.2 2 0 0 0 0 -29.8923 10.5697 0
528 1 5.4 2 0 0 0 0 -4.45031 -3.43278 0
576 1 5 2.2 0 0 0 0 -4.40577 1.09457 0
577 1 5.2 2.2 0 0 0 0 -0.464461 -5.27616 0
578 1 5.4 2.2 0 0 0 0 1.50554 1.54869 0
626 1 5 2.4 0 0 0 0 -25.9983 -5.15376 0
627 1 5.2 2.4 0 0 0 0 12.9834 -23.6862 0
628 1 5.4 2.4 0 0 0 0 -2.37729 -13.161 0
529 1 5.6 2 0 0 0 0 8.39119 31.4581 0
530 1 5.8 2 0 0 0 0 -30.6513 -12.3488 0
579 1 5.6 2.2 0 0 0 0 0.997643 -22.8053 0
580 1 5.8 2.2 0 0 0 0 18.5934 -2.97294 0
629 1 5.6 2.4 0 0 0 0 -12.2206 12.3306 0
630 1 5.8 2.4 0 0 0 0 12.476 16.6701 0
531 1 6 2 0 0 0 0 -11.4312 15.8466 0
532 1 6.2 2 0 0 0 0 6.29897 -8.41189 0
533 1 6.4 2 0 0 0 0 17.4926 11.5956 0
581 1 6 2.2 0 0 0 0 -3.8147 -11.5035 0
582 1 6.2 2.2 0 0 0 0 -5.87805 3.89868 0
583 1 6.4 2.2 0 0 0 0 -15.9279 -11.6275 0
631 1 6 2.4 0 0 0 0 -12.7921 11.6379 0
632 1 6.2 2.4 0 0 0 0 12.9985 0.970395 0
633 1 6.4 2.4 0 0 0 0 11.7924 25.8856 0
534 1 6.6 2 0 0 0 0 3.18626 -8.31648 0
535 1 6.8 2 0 0 0 0 -8.52532 -3.00474 0
584 1 6.6 2.2 0 0 0 0 0.0920247 -8.37717 0
585 1 6.8 2.2 0 0 0 0 -3.3555 15.1358 0
634 1 6.6 2.4 0 0 0 0 16.4057 27.695 0
635 1 6.8 2.4 0 0 0 0 -10.0755 6.39456 0
536 1 7 2 0 0 0 0 -2.36267 6.24027 0
537 1 7.2 2 0 0 0 0 -0.399322 -35.4901 0
538 1 7.4 2 0 0 0 0 5.23908 8.34787 0
586 1 7 2.2 0 0 0 0 -13.8546 -3.12681 0
587 1 7.2 2.2 0 0 0 0 10.0577 7.20894 0
588 1 7.4 2.2 0 0 0 0 5.00723 7.0183 0
636 1 7 2.4 0 0 0 0 -10.86 5.97337 0
637 1 7.2 2.4 0 0 0 0 -1.99594 -18.353 0
638 1 7.4 2.4 0 0 0 0 17.7196 -16.482 0
539 1 7.6 2 0 0 0 0 -6.66595 4.40835 0
540 1 7.8 2 0 0 0 0 -8.19073 18.6594 0
589 1 7.6 2.2 0 0 0 0 -16.3523 14.5381 0
590 1 7.8 2.2 0 0 0 0 7.51794 -3.18205 0
639 1 7.6 2.4 0 0 0 0 7.2146 -16.4833 0
640 1 7.8 2.4 0 0 0 0 4.61498 14.3044 0
541 1 8 2 0 0 0 0 19.0727 3.44439 0
542 1 8.2 2 0 0 0 0 -24.0634 5.36285 0
543 1 8.4 2 0 0 0 0 -19.0297 1.69302 0
591 1 8 2.2 0 0 0 0 -9.43987 -2.06188 0
592 1 8.2 2.2 0 0 0 0 31.3648 -1.37207 0
593 1 8.4 2.2 0 0 0 0 1.43298 11.4734 0
641 1 8 2.4 0 0 0 0 -10.139 0.137059 0
642 1 8.2 2.4 0 0 0 0 7.80444 -19.9736 0
643 1 8.4 2.4 0 0 0 0 -3.8896 -4.97648 0
544 1 8.6 2 0 0 0 0 11.6545 -0.640716 0
545 1 8.8 2 0 0 0 0 7.4657 -17.811 0
594 1 8.6 2.2 0 0 0 0 -22.0363 18.4918 0
595 1 8.8 2.2 0 0 0 0 0.326547 2.06777 0
644 1 8.6 2.4 0 0 0 0 1.31681 -18.1502 0
645 1 8.8 2.4 0 0 0 0 7.28023 23.1543 0
546 1 9 2 0 0 0 0 -9.23908 -9.20674 0
547 1 9.2 2 0 0 0 0 -9.84685 7.09671 0
548 1 9.4 2 0 0 0 0 20.6945 7.80287 0
596 1 9 2.2 0 0 0 0 18.4361 29.8865 0
597 1 9.2 2.2 0 0 0 0 -0.352159 3.48137 0
598 1 9.4 2.2 0 0 0 0 -0.0393564 16.5889 0
646 1 9 2.4 0 0 0 0 -6.62354 -3.35078 0
647 1 9.2 2.4 0 0 0 0 -7.87607 13.4219 0
648 1 9.4 2.4 0 0 0 0 22.7006 -12.4992 0
549 1 9.6 2 0 0 0 0 4.33088 -28.2925 0
550 1 9.8 2 0 0 0 0 -11.0665 -6.42842 0
599 1 9.6 2.2 0 0 0 0 20.3481 -13.7126 0
600 1 9.8 2.2 0 0 0 0 11.9676 9.08319 0
649 1 9.6 2.4 0 0 0 0 -11.9178 12.4626 0
650 1 9.8 2.4 0 0 0 0 -5.71888 9.56062 0
651 1 0 2.6 0 0 0 0 -24.7837 8.85863 0
652 1 0.2 2.6 0 0 0 0 32.9841 8.58141 0
653 1 0.4 2.6 0 0 0 0 -11.8201 -0.0491485 0
701 1 0 2.8 0 0 0 0 -5.8888 -10.8802 0
702 1 0.2 2.8 0 0 0 0 14.1801 -9.17643 0
703 1 0.4 2.8 0 0 0 0 1.24702 28.8813 0
654 1 0.6 2.6 0 0 0 0 4.36327 2.50698 0
655 1 0.8 2.6 0 0 0 0 -13.4757 13.1806 0
704 1 0.6 2.8 0 0 0 0 48.6532 1.17568 0
705 1 0.8 2.8 0 0 0 0 -8.33299 -11.2947 0
656 1 1 2.6 0 0 0 0 24.9271 -21.0409 0
657 1 1.2 2.6 0 0 0 0 3.49589 33.2965 0
658 1 1.4 2.6 0 0 0 0 -19.0617 13.6705 0
706 1 1 2.8 0 0 0 0 -10.0616 -4.4478 0
707 1 1.2 2.8 0 0 0 0 -10.2057 -13.2174 0
708 1 1.4 2.8 0 0 0 0 31.2186 -15.6346 0
659 1 1.6 2.6 0 0 0 0 -3.56991 25.9164 0
660 1 1.8 2.6 0 0 0 0 -26.5524 8.21431 0
709 1 1.6 2.8 0 0 0 0 -26.796 2.84033 0
710 1 1.8 2.8 0 0 0 0 5.23323 25.9607 0
661 1 2 2.6 0 0 0 0 -22.6848 18.2245 0
662 1 2.2 2.6 0 0 0 0 -0.582797 7.79613 0
663 1 2.4 2.6 0 0 0 0 19.2787 8.8093 0
711 1 2 2.8 0 0 0 0 -3.01616 11.1654 0
712 1 2.2 2.8 0 0 0 0 -17.1777 1.03488 0
713 1 2.4 2.8 0 0 0 0 10.2098 -14.3199 0
664 1 2.6 2.6 0 0 0 0 25.4395 -15.1897 0
665 1 2.8 2.6 0 0 0 0 14.4641 5.56382 0
714 1 2.6 2.8 0 0 0 0 -34.1635 8.16661 0
715 1 2.8 2.8 0 0 0 0 5.12449 -15.5718 0
666 1 3 2.6 0 0 0 0 30.2642 -29.4631 0
667 1 3.2 2.6 0 0 0 0 -10.688 19.7875 0
668 1 3.4 2.6 0 0 0 0 -2.6828 -14.2621 0
716 1 3 2.8 0 0 0 0 -10.2685 8.80391 0
717 1 3.2 2.8 0 0 0 0 9.93559 22.5555 0
718 1 3.4 2.8 0 0 0 0 -2.10783 -29.7496 0
669 1 3.6 2.6 0 0 0 0 -4.35622 -2.25905 0
670 1 3.8 2.6 0 0 0 0 -3.42462 7.98436 0
719 1 3.6 2.8 0 0 0 0 7.56457 12.4044 0
720 1 3.8 2.8 0 0 0 0 -16.5156 8.53564 0
671 1 4 2.6 0 0 0 0 30.6031 35.7881 0
672 1 4.2 2.6 0 0 0 0 2.44683 7.2237 0
673 1 4.4 2.6 0 0 0 0 3.0017 -11.3867 0
721 1 4 2.8 0 0 0 0 0.0083283 -20.555 0
722 1 4.2 2.8 0 0 0 0 7.11515 -0.900915 0
723 1 4.4 2.8 0 0 0 0 6.83007 -9.52792 0
674 1 4.6 2.6 0 0 0 0 17.7174 6.0664 0
675 1 4.8 2.6 0 0 0 0 -46.7565 -31.9558 0
724 1 4.6 2.8 0 0 0 0 -12.0298 1.09247 0
725 1 4.8 2.8 0 0 0 0 -22.5422 24.3767 0
676 1 5 2.6 0 0 0 0 31.0496 -19.7924 0
677 1 5.2 2.6 0 0 0 0 -35.668 26.3476 0
678 1 5.4 2.6 0 0 0 0 35.022 -8.50014 0
726 1 5 2.8 0 0 0 0 1.04818 -1.78378 0
727 1 5.2 2.8 0 0 0 0 3.1872 4.36303 0
728 1 5.4 2.8 0 0 0 0 12.4852 18.557 0
679 1 5.6 2.6 0 0 0 0 -6.62133 -0.593758 0
680 1 5.8 2.6 0 0 0 0 -5.51325 -4.83317 0
729 1 5.6 2.8 0 0 0 0 -11.2936 -9.08625 0
730 1 5.8 2.8 0 0 0 0 -0.325549 -15.8814 0
681 1 6 2.6 0 0 0 0 -0.446836 -13.7322 0
682 1 6.2 2.6 0 0 0 0 16.5166 12.1202 0
683 1 6.4 2.6 0 0 0 0 0.0865071 3.47382 0
731 1 6 2.8 0 0 0 0 -27.9022 -3.23171 0
732 1 6.2 2.8 0 0 0 0 22.3935 20.3233 0
733 1 6.4 2.8 0 0 0 0 20.477 15.6492 0
684 1 6.6 2.6 0 0 0 0 1.02693 -10.8197 0
685 1 6.8 2.6 0 0 0 0 1.5546 25.5676 0
734 1 6.6 2.8 0 0 0 0 -10.4152 -12.3008 0
735 1 6.8 2.8 0 0 0 0 -13.282 -26.7468 0
686 1 7 2.6 0 0 0 0 -5.18771 -0.375698 0
687 1 7.2 2.6 0 0 0 0 -4.19458 26.1224 0
688 1 7.4 2.6 0 0 0 0 22.2254 8.16794 0
736 1 7 2.8 0 0 0 0 -10.0006 3.61642 0
737 1 7.2 2.8 0 0 0 0 2.25436 -19.034 0
738 1 7.4 2.8 0 0 0 0 8.21965 7.12343 0
689 1 7.6 2.6 0 0 0 0 -27.159 -8.33359 0
690 1 7.8 2.6 0 0 0 0 -17.798 3.99233 0
739 1 7.6 2.8 0 0 0 0 8.93853 -7.4356 0
740 1 7.8 2.8 0 0 0 0 12.1509 9.90379 0
691 1 8 2.6 0 0 0 0 8.14436 -0.0716373 0
692 1 8.2 2.6 0 0 0 0 -0.753303 2.50292 0
693 1 8.4 2.6 0 0 0 0 -6.2589 -13.8415 0
741 1 8 2.8 0 0 0 0 -8.42429 -1.84191 0
742 1 8.2 2.8 0 0 0 0 -16.9559 6.63406 0
743 1 8.4 2.8 0 0 0 0 5.71932 -3.40153 0
694 1 8.6 2.6 0 0 0 0 -9.41174 12.3904 0
695 1 8.8 2.6 0 0 0 0 16.1437 13.7889 0
744 1 8.6 2.8 0 0 0 0 -12.0587 -18.8212 0
745 1 8.8 2.8 0 0 0 0 24.9403 -5.33071 0
696 1 9 2.6 0 0 0 0 9.90343 -2.09027 0
697 1 9.2 2.6 0 0 0 0 1.34165 -13.9161 0
698 1 9.4 2.6 0 0 0 0 4.34993 4.63446 0
746 1 9 2.8 0 0 0 0 6.15841 4.58889 0
747 1 9.2 2.8 0 0 0 0 -14.6222 4.49915 0