ITEM: TIMESTEP
0
ITEM: NUMBER OF ATOMS
33611
ITEM: BOX BOUNDS pp pp pp
0.0000000000000000e+00 8.0000000000000000e+01
0.0000000000000000e+00 2.8000000000000000e+01
0.0000000000000000e+00 2.0000000000000001e-01
ITEM: ATOMS id type x y z vx vy vz fx fy fz mass c_density
82 2 16.2 0 0 0 0 0 6.76592 -0.00479056 0 0.04 0.661645
482 2 16.2 0.2 0 0 0 0 6.76592 -0.0047751 0 0.04 0.661645
882 2 16.2 0.4 0 0 0 0 6.76592 -0.00476883 0 0.04 0.661645
83 2 16.4 0 0 0 0 0 -1.80942 -0.0047841 0 0.04 0.903481
84 2 16.6 0 0 0 0 0 -3.62704 -0.00475855 0 0.04 0.992079
85 2 16.8 0 0 0 0 0 -1.7307 -0.00477163 0 0.04 0.999903
483 2 16.4 0.2 0 0 0 0 -1.80943 -0.00477607 0 0.04 0.903481
484 2 16.6 0.2 0 0 0 0 -3.62704 -0.00477898 0 0.04 0.992079
485 2 16.8 0.2 0 0 0 0 -1.7307 -0.00477644 0 0.04 0.999903
883 2 16.4 0.4 0 0 0 0 -1.80941 -0.00478458 0 0.04 0.903481
884 2 16.6 0.4 0 0 0 0 -3.62704 -0.00476757 0 0.04 0.992079
885 2 16.8 0.4 0 0 0 0 -1.7307 -0.00478052 0 0.04 0.999903
86 2 17 0 0 0 0 0 -0.32396 -0.00478747 0 0.04 0.999903
87 2 17.2 0 0 0 0 0 -0.0270443 -0.00477141 0 0.04 0.999903
486 2 17 0.2 0 0 0 0 -0.323978 -0.00477198 0 0.04 0.999903
487 2 17.2 0.2 0 0 0 0 -0.0270288 -0.00477623 0 0.04 0.999903
886 2 17 0.4 0 0 0 0 -0.323971 -0.00476674 0 0.04 0.999903
887 2 17.2 0.4 0 0 0 0 -0.0270452 -0.00477488 0 0.04 0.999903
88 2 17.4 0 0 0 0 0 0.00479498 -0.00476885 0 0.04 0.999903
89 2 17.6 0 0 0 0 0 -6.5375e-06 -0.00478229 0 0.04 0.999903
90 2 17.8 0 0 0 0 0 4.03435e-06 -0.00477535 0 0.04 0.999903
488 2 17.4 0.2 0 0 0 0 0.00478612 -0.00478157 0 0.04 0.999903
489 2 17.6 0.2 0 0 0 0 9.23384e-07 -0.00478255 0 0.04 0.999903
490 2 17.8 0.2 0 0 0 0 -4.2326e-07 -0.00477685 0 0.04 0.999903
888 2 17.4 0.4 0 0 0 0 0.00476941 -0.00478215 0 0.04 0.999903
889 2 17.6 0.4 0 0 0 0 2.09621e-06 -0.00477837 0 0.04 0.999903
890 2 17.8 0.4 0 0 0 0 -2.8683e-06 -0.00478832 0 0.04 0.999903
91 2 18 0 0 0 0 0 -8.74328e-06 -0.00476169 0 0.04 0.999903
92 2 18.2 0 0 0 0 0 -0.00477482 -0.00479144 0 0.04 0.999903
491 2 18 0.2 0 0 0 0 3.09772e-06 -0.00478228 0 0.04 0.999903
492 2 18.2 0.2 0 0 0 0 -0.0047845 -0.00477298 0 0.04 0.999903
891 2 18 0.4 0 0 0 0 1.77408e-06 -0.00478078 0 0.04 0.999903
892 2 18.2 0.4 0 0 0 0 -0.0047749 -0.00477628 0 0.04 0.999903
93 2 18.4 0 0 0 0 0 7.69437e-06 -0.00478099 0 0.04 0.999903
94 2 18.6 0 0 0 0 0 3.93839e-07 -0.00477296 0 0.04 0.999903
493 2 18.4 0.2 0 0 0 0 -7.38599e-06 -0.00477632 0 0.04 0.999903
494 2 18.6 0.2 0 0 0 0 3.04122e-06 -0.00478458 0 0.04 0.999903
893 2 18.4 0.4 0 0 0 0 -5.48668e-07 -0.00477333 0 0.04 0.999903
894 2 18.6 0.4 0 0 0 0 1.23132e-05 -0.00476637 0 0.04 0.999903
95 2 18.8 0 0 0 0 0 5.53803e-07 -0.00476838 0 0.04 0.999903
96 2 19 0 0 0 0 0 6.07873e-06 -0.00478216 0 0.04 0.999903
97 2 19.2 0 0 0 0 0 0.00478365 -0.0047673 0 0.04 0.999903
495 2 18.8 0.2 0 0 0 0 -2.79639e-06 -0.00478238 0 0.04 0.999903
496 2 19 0.2 0 0 0 0 6.42949e-06 -0.00478196 0 0.04 0.999903
497 2 19.2 0.2 0 0 0 0 0.00478455 -0.00477785 0 0.04 0.999903
895 2 18.8 0.4 0 0 0 0 -6.70389e-06 -0.00477346 0 0.04 0.999903
896 2 19 0.4 0 0 0 0 -4.9691e-06 -0.00477535 0 0.04 0.999903
897 2 19.2 0.4 0 0 0 0 0.00477168 -0.00478135 0 0.04 0.999903
98 2 19.4 0 0 0 0 0 6.0835e-06 -0.00477588 0 0.04 0.999903
99 2 19.6 0 0 0 0 0 3.19319e-06 -0.00477405 0 0.04 0.999903
498 2 19.4 0.2 0 0 0 0 -6.02948e-06 -0.00477026 0 0.04 0.999903
499 2 19.6 0.2 0 0 0 0 6.16986e-06 -0.00478283 0 0.04 0.999903
898 2 19.4 0.4 0 0 0 0 -1.97806e-06 -0.00478246 0 0.04 0.999903
899 2 19.6 0.4 0 0 0 0 -1.45014e-05 -0.00478797 0 0.04 0.999903
100 2 19.8 0 0 0 0 0 1.14662e-05 -0.00477279 0 0.04 0.999903
101 2 20 0 0 0 0 0 -0.00478047 -0.00478125 0 0.04 0.999903
102 2 20.2 0 0 0 0 0 0.00478971 -0.00476815 0 0.04 0.999903
500 2 19.8 0.2 0 0 0 0 -1.0802e-06 -0.00477986 0 0.04 0.999903
501 2 20 0.2 0 0 0 0 -0.00478444 -0.00478293 0 0.04 0.999903
502 2 20.2 0.2 0 0 0 0 0.00478737 -0.00476873 0 0.04 0.999903
900 2 19.8 0.4 0 0 0 0 -1.23039e-05 -0.00478911 0 0.04 0.999903
901 2 20 0.4 0 0 0 0 -0.00476949 -0.00478387 0 0.04 0.999903
902 2 20.2 0.4 0 0 0 0 0.00476733 -0.00478518 0 0.04 0.999903
103 2 20.4 0 0 0 0 0 -1.33351e-05 -0.00477729 0 0.04 0.999903
104 2 20.6 0 0 0 0 0 -2.15506e-06 -0.00476779 0 0.04 0.999903
503 2 20.4 0.2 0 0 0 0 5.41341e-06 -0.00478166 0 0.04 0.999903
504 2 20.6 0.2 0 0 0 0 -3.12127e-06 -0.00478321 0 0.04 0.999903
903 2 20.4 0.4 0 0 0 0 -4.39849e-06 -0.00479053 0 0.04 0.999903
904 2 20.6 0.4 0 0 0 0 -8.73185e-06 -0.00476992 0 0.04 0.999903
105 2 20.8 0 0 0 0 0 9.99882e-06 -0.00477546 0 0.04 0.999903
106 2 21 0 0 0 0 0 -0.00477674 -0.00477351 0 0.04 0.999903
107 2 21.2 0 0 0 0 0 0.00478513 -0.00477534 0 0.04 0.999903
505 2 20.8 0.2 0 0 0 0 -3.49314e-06 -0.00479011 0 0.04 0.999903
506 2 21 0.2 0 0 0 0 -0.00478928 -0.00478757 0 0.04 0.999903
507 2 21.2 0.2 0 0 0 0 0.00479072 -0.00478048 0 0.04 0.999903
905 2 20.8 0.4 0 0 0 0 -7.95064e-06 -0.00478064 0 0.04 0.999903
906 2 21 0.4 0 0 0 0 -0.00477995 -0.00476854 0 0.04 0.999903
907 2 21.2 0.4 0 0 0 0 0.00477539 -0.00478058 0 0.04 0.999903
108 2 21.4 0 0 0 0 0 2.85464e-06 -0.00477332 0 0.04 0.999903
109 2 21.6 0 0 0 0 0 4.92077e-06 -0.00478788 0 0.04 0.999903
508 2 21.4 0.2 0 0 0 0 1.1617e-05 -0.00478302 0 0.04 0.999903
509 2 21.6 0.2 0 0 0 0 -2.12936e-06 -0.00477569 0 0.04 0.999903
908 2 21.4 0.4 0 0 0 0 3.00621e-06 -0.00478743 0 0.04 0.999903
909 2 21.6 0.4 0 0 0 0 1.24032e-05 -0.00478768 0 0.04 0.999903
110 2 21.8 0 0 0 0 0 -1.0045e-05 -0.00478115 0 0.04 0.999903
111 2 22 0 0 0 0 0 -0.0047807 -0.00477953 0 0.04 0.999903
510 2 21.8 0.2 0 0 0 0 -4.91972e-06 -0.00477192 0 0.04 0.999903
511 2 22 0.2 0 0 0 0 -0.00477806 -0.00479112 0 0.04 0.999903
910 2 21.8 0.4 0 0 0 0 6.20366e-06 -0.00478085 0 0.04 0.999903
911 2 22 0.4 0 0 0 0 -0.00478252 -0.00478605 0 0.04 0.999903
112 2 22.2 0 0 0 0 0 0.00478957 -0.00478371 0 0.04 0.999903
113 2 22.4 0 0 0 0 0 -1.71335e-06 -0.00478141 0 0.04 0.999903
114 2 22.6 0 0 0 0 0 5.29132e-06 -0.00477412 0 0.04 0.999903
512 2 22.2 0.2 0 0 0 0 0.00477425 -0.00478497 0 0.04 0.999903
513 2 22.4 0.2 0 0 0 0 -4.08648e-06 -0.00477666 0 0.04 0.999903
514 2 22.6 0.2 0 0 0 0 -2.19851e-06 -0.00477445 0 0.04 0.999903
912 2 22.2 0.4 0 0 0 0 0.00477754 -0.00478888 0 0.04 0.999903
913 2 22.4 0.4 0 0 0 0 6.90212e-06 -0.00478533 0 0.04 0.999903
914 2 22.6 0.4 0 0 0 0 -4.85872e-06 -0.00478811 0 0.04 0.999903
115 2 22.8 0 0 0 0 0 -1.03063e-05 -0.00477923 0 0.04 0.999903
116 2 23 0 0 0 0 0 -0.00476878 -0.00478179 0 0.04 0.999903
515 2 22.8 0.2 0 0 0 0 2.65391e-06 -0.00478268 0 0.04 0.999903
516 2 23 0.2 0 0 0 0 -0.00476258 -0.00478478 0 0.04 0.999903
915 2 22.8 0.4 0 0 0 0 -9.61422e-06 -0.00477497 0 0.04 0.999903
916 2 23 0.4 0 0 0 0 -0.00477841 -0.0047812 0 0.04 0.999903
117 2 23.2 0 0 0 0 0 0.00477076 -0.00477704 0 0.04 0.999903
118 2 23.4 0 0 0 0 0 4.2983e-06 -0.00477177 0 0.04 0.999903
119 2 23.6 0 0 0 0 0 2.80745e-06 -0.00479565 0 0.04 0.999903
517 2 23.2 0.2 0 0 0 0 0.00476917 -0.00478579 0 0.04 0.999903
518 2 23.4 0.2 0 0 0 0 -1.07577e-05 -0.00477524 0 0.04 0.999903
519 2 23.6 0.2 0 0 0 0 -7.99519e-06 -0.00477411 0 0.04 0.999903
917 2 23.2 0.4 0 0 0 0 0.00478477 -0.00478714 0 0.04 0.999903
918 2 23.4 0.4 0 0 0 0 2.95544e-06 -0.0047733 0 0.04 0.999903
919 2 23.6 0.4 0 0 0 0 4.01215e-06 -0.0047738 0 0.04 0.999903
120 2 23.8 0 0 0 0 0 -9.32925e-06 -0.00477693 0 0.04 0.999903
121 2 24 0 0 0 0 0 -0.00478101 -0.00477222 0 0.04 0.999903
520 2 23.8 0.2 0 0 0 0 2.37363e-06 -0.00479109 0 0.04 0.999903
521 2 24 0.2 0 0 0 0 -0.00476497 -0.00477785 0 0.04 0.999903
920 2 23.8 0.4 0 0 0 0 -2.09228e-09 -0.00478457 0 0.04 0.999903
921 2 24 0.4 0 0 0 0 -0.00477532 -0.00478027 0 0.04 0.999903
122 2 24.2 0 0 0 0 0 0.00477883 -0.00477514 0 0.04 0.999903
123 2 24.4 0 0 0 0 0 8.49702e-06 -0.00476828 0 0.04 0.999903
522 2 24.2 0.2 0 0 0 0 0.00476376 -0.00477938 0 0.04 0.999903
523 2 24.4 0.2 0 0 0 0 -3.98348e-07 -0.00477944 0 0.04 0.999903
922 2 24.2 0.4 0 0 0 0 0.00478036 -0.0047762 0 0.04 0.999903
923 2 24.4 0.4 0 0 0 0 1.34859e-05 -0.00477318 0 0.04 0.999903
124 2 24.6 0 0 0 0 0 1.21244e-05 -0.00477364 0 0.04 0.999903
125 2 24.8 0 0 0 0 0 5.12856e-06 -0.00476541 0 0.04 0.999903
126 2 25 0 0 0 0 0 -0.00478345 -0.00477633 0 0.04 0.999903
524 2 24.6 0.2 0 0 0 0 -1.59165e-06 -0.0047827 0 0.04 0.999903
525 2 24.8 0.2 0 0 0 0 1.29511e-05 -0.00478471 0 0.04 0.999903
526 2 25 0.2 0 0 0 0 -0.00478346 -0.00477713 0 0.04 0.999903
924 2 24.6 0.4 0 0 0 0 -5.32338e-06 -0.00477299 0 0.04 0.999903
925 2 24.8 0.4 0 0 0 0 -2.77666e-06 -0.00477935 0 0.04 0.999903
926 2 25 0.4 0 0 0 0 -0.00478138 -0.00479326 0 0.04 0.999903
127 2 25.2 0 0 0 0 0 0.00478177 -0.0047843 0 0.04 0.999903
128 2 25.4 0 0 0 0 0 -9.42021e-06 -0.00479014 0 0.04 0.999903
527 2 25.2 0.2 0 0 0 0 0.0047677 -0.00478048 0 0.04 0.999903
528 2 25.4 0.2 0 0 0 0 2.48654e-06 -0.00476984 0 0.04 0.999903
927 2 25.2 0.4 0 0 0 0 0.00477252 -0.00477636 0 0.04 0.999903
928 2 25.4 0.4 0 0 0 0 -2.89774e-06 -0.00478585 0 0.04 0.999903
129 2 25.6 0 0 0 0 0 -1.5844e-06 -0.00478943 0 0.04 0.999903
130 2 25.8 0 0 0 0 0 1.72567e-06 -0.00477929 0 0.04 0.999903
131 2 26 0 0 0 0 0 -0.00478443 -0.00477168 0 0.04 0.999903
529 2 25.6 0.2 0 0 0 0 3.60888e-06 -0.00478633 0 0.04 0.999903
530 2 25.8 0.2 0 0 0 0 1.30625e-06 -0.00477249 0 0.04 0.999903
531 2 26 0.2 0 0 0 0 -0.00478148 -0.00477816 0 0.04 0.999903
929 2 25.6 0.4 0 0 0 0 1.18483e-06 -0.00477079 0 0.04 0.999903
930 2 25.8 0.4 0 0 0 0 1.42915e-05 -0.00478143 0 0.04 0.999903
931 2 26 0.4 0 0 0 0 -0.00478183 -0.00479066 0 0.04 0.999903
132 2 26.2 0 0 0 0 0 0.00478858 -0.00478518 0 0.04 0.999903
133 2 26.4 0 0 0 0 0 7.33604e-06 -0.00478457 0 0.04 0.999903
532 2 26.2 0.2 0 0 0 0 0.00477908 -0.0047827 0 0.04 0.999903
533 2 26.4 0.2 0 0 0 0 -6.9262e-06 -0.00476856 0 0.04 0.999903
932 2 26.2 0.4 0 0 0 0 0.00478316 -0.00477788 0 0.04 0.999903
933 2 26.4 0.4 0 0 0 0 -7.26648e-06 -0.00478578 0 0.04 0.999903
134 2 26.6 0 0 0 0 0 -8.6447e-06 -0.00478514 0 0.04 0.999903
135 2 26.8 0 0 0 0 0 -5.04254e-06 -0.00477062 0 0.04 0.999903
534 2 26.6 0.2 0 0 0 0 -9.59259e-06 -0.00478732 0 0.04 0.999903
535 2 26.8 0.2 0 0 0 0 1.17061e-05 -0.00477755 0 0.04 0.999903
934 2 26.6 0.4 0 0 0 0 6.94775e-06 -0.0047851 0 0.04 0.999903
935 2 26.8 0.4 0 0 0 0 3.03651e-06 -0.0047676 0 0.04 0.999903
136 2 27 0 0 0 0 0 -0.00478106 -0.00478388 0 0.04 0.999903
137 2 27.2 0 0 0 0 0 0.00478431 -0.00477113 0 0.04 0.999903
138 2 27.4 0 0 0 0 0 -1.36953e-06 -0.00478662 0 0.04 0.999903
536 2 27 0.2 0 0 0 0 -0.00477693 -0.00477616 0 0.04 0.999903
537 2 27.2 0.2 0 0 0 0 0.00476953 -0.00477803 0 0.04 0.999903
538 2 27.4 0.2 0 0 0 0 -3.65432e-06 -0.00478232 0 0.04 0.999903
936 2 27 0.4 0 0 0 0 -0.00478443 -0.004783 0 0.04 0.999903
937 2 27.2 0.4 0 0 0 0 0.00477592 -0.0047948 0 0.04 0.999903
938 2 27.4 0.4 0 0 0 0 -3.53926e-06 -0.00478224 0 0.04 0.999903
139 2 27.6 0 0 0 0 0 8.22111e-07 -0.00478281 0 0.04 0.999903
140 2 27.8 0 0 0 0 0 -3.80746e-06 -0.00479142 0 0.04 0.999903
539 2 27.6 0.2 0 0 0 0 -8.5984e-06 -0.00477987 0 0.04 0.999903
540 2 27.8 0.2 0 0 0 0 1.2419e-05 -0.00477261 0 0.04 0.999903
939 2 27.6 0.4 0 0 0 0 -6.45283e-06 -0.00478091 0 0.04 0.999903
940 2 27.8 0.4 0 0 0 0 -4.33452e-07 -0.00478073 0 0.04 0.999903
141 2 28 0 0 0 0 0 -0.00476746 -0.00477869 0 0.04 0.999903
142 2 28.2 0 0 0 0 0 0.00477961 -0.00479427 0 0.04 0.999903
143 2 28.4 0 0 0 0 0 -4.44906e-06 -0.00477756 0 0.04 0.999903
541 2 28 0.2 0 0 0 0 -0.0047865 -0.00477218 0 0.04 0.999903
542 2 28.2 0.2 0 0 0 0 0.00477728 -0.00477193 0 0.04 0.999903
543 2 28.4 0.2 0 0 0 0 -1.03076e-05 -0.00478367 0 0.04 0.999903
941 2 28 0.4 0 0 0 0 -0.00476746 -0.00477248 0 0.04 0.999903
942 2 28.2 0.4 0 0 0 0 0.00477871 -0.00477094 0 0.04 0.999903
943 2 28.4 0.4 0 0 0 0 4.28457e-06 -0.00478063 0 0.04 0.999903
144 2 28.6 0 0 0 0 0 2.50129e-06 -0.00478705 0 0.04 0.999903
145 2 28.8 0 0 0 0 0 -1.17401e-05 -0.00477171 0 0.04 0.999903
544 2 28.6 0.2 0 0 0 0 3.74271e-06 -0.00477827 0 0.04 0.999903
545 2 28.8 0.2 0 0 0 0 6.49644e-06 -0.00478728 0 0.04 0.999903
944 2 28.6 0.4 0 0 0 0 -2.84065e-06 -0.00478504 0 0.04 0.999903
945 2 28.8 0.4 0 0 0 0 1.78088e-06 -0.00478449 0 0.04 0.999903
146 2 29 0 0 0 0 0 -0.00477599 -0.0047783 0 0.04 0.999903
147 2 29.2 0 0 0 0 0 0.0047877 -0.004778 0 0.04 0.999903
546 2 29 0.2 0 0 0 0 -0.00478519 -0.00477218 0 0.04 0.999903
547 2 29.2 0.2 0 0 0 0 0.00477545 -0.00477688 0 0.04 0.999903
946 2 29 0.4 0 0 0 0 -0.00477405 -0.00477826 0 0.04 0.999903
947 2 29.2 0.4 0 0 0 0 0.00477161 -0.00479623 0 0.04 0.999903
148 2 29.4 0 0 0 0 0 1.58323e-06 -0.00478456 0 0.04 0.999903
149 2 29.6 0 0 0 0 0 -4.71867e-06 -0.00477046 0 0.04 0.999903
150 2 29.8 0 0 0 0 0 -1.12522e-05 -0.00478015 0 0.04 0.999903
548 2 29.4 0.2 0 0 0 0 5.14412e-06 -0.00476616 0 0.04 0.999903
549 2 29.6 0.2 0 0 0 0 6.60178e-06 -0.00478145 0 0.04 0.999903
550 2 29.8 0.2 0 0 0 0 1.97265e-06 -0.00477621 0 0.04 0.999903
948 2 29.4 0.4 0 0 0 0 -1.00493e-05 -0.00478157 0 0.04 0.999903
949 2 29.6 0.4 0 0 0 0 4.28644e-06 -0.00478088 0 0.04 0.999903
950 2 29.8 0.4 0 0 0 0 -3.12999e-06 -0.00477693 0 0.04 0.999903
151 2 30 0 0 0 0 0 -0.00477555 -0.00478308 0 0.04 0.999903
152 2 30.2 0 0 0 0 0 0.00478127 -0.0047688 0 0.04 0.999903
551 2 30 0.2 0 0 0 0 -0.00477033 -0.00477864 0 0.04 0.999903
552 2 30.2 0.2 0 0 0 0 0.00477912 -0.00478577 0 0.04 0.999903
951 2 30 0.4 0 0 0 0 -0.00478752 -0.00478194 0 0.04 0.999903
952 2 30.2 0.4 0 0 0 0 0.0047853 -0.00476725 0 0.04 0.999903
153 2 30.4 0 0 0 0 0 -1.417e-06 -0.00477513 0 0.04 0.999903
154 2 30.6 0 0 0 0 0 -1.08945e-05 -0.0047894 0 0.04 0.999903
155 2 30.8 0 0 0 0 0 -2.63109e-06 -0.00477878 0 0.04 0.999903
553 2 30.4 0.2 0 0 0 0 -7.94694e-06 -0.00477717 0 0.04 0.999903
554 2 30.6 0.2 0 0 0 0 4.01005e-06 -0.00477941 0 0.04 0.999903
555 2 30.8 0.2 0 0 0 0 9.33086e-06 -0.00477316 0 0.04 0.999903
953 2 30.4 0.4 0 0 0 0 -7.73096e-08 -0.00477503 0 0.04 0.999903
954 2 30.6 0.4 0 0 0 0 3.3276e-06 -0.00478992 0 0.04 0.999903
955 2 30.8 0.4 0 0 0 0 8.5278e-07 -0.00478595 0 0.04 0.999903
156 2 31 0 0 0 0 0 -0.00477766 -0.00477697 0 0.04 0.999903
157 2 31.2 0 0 0 0 0 0.00477209 -0.00477023 0 0.04 0.999903
556 2 31 0.2 0 0 0 0 -0.00477253 -0.00477849 0 0.04 0.999903
557 2 31.2 0.2 0 0 0 0 0.00477334 -0.00478263 0 0.04 0.999903
956 2 31 0.4 0 0 0 0 -0.00478943 -0.00477936 0 0.04 0.999903
957 2 31.2 0.4 0 0 0 0 0.00477777 -0.00476422 0 0.04 0.999903
158 2 31.4 0 0 0 0 0 4.62115e-06 -0.00477809 0 0.04 0.999903
159 2 31.6 0 0 0 0 0 0.00477448 -0.00477625 0 0.04 0.999903
160 2 31.8 0 0 0 0 0 -1.60661e-06 -0.0047832 0 0.04 0.999903
558 2 31.4 0.2 0 0 0 0 2.7294e-07 -0.00477538 0 0.04 0.999903
559 2 31.6 0.2 0 0 0 0 0.00476757 -0.0047737 0 0.04 0.999903
560 2 31.8 0.2 0 0 0 0 5.61058e-06 -0.00477404 0 0.04 0.999903
958 2 31.4 0.4 0 0 0 0 -8.38386e-06 -0.00478565 0 0.04 0.999903
959 2 31.6 0.4 0 0 0 0 0.00477981 -0.00477413 0 0.04 0.999903
960 2 31.8 0.4 0 0 0 0 7.68076e-06 -0.00478368 0 0.04 0.999903
161 2 32 0 0 0 0 0 -0.00478794 -0.00478054 0 0.04 0.999903
162 2 32.2 0 0 0 0 0 0.00478464 -0.00476752 0 0.04 0.999903
561 2 32 0.2 0 0 0 0 -0.00478244 -0.00477441 0 0.04 0.999903
562 2 32.2 0.2 0 0 0 0 0.00477874 -0.00476489 0 0.04 0.999903
961 2 32 0.4 0 0 0 0 -0.00477553 -0.00477808 0 0.04 0.999903
962 2 32.2 0.4 0 0 0 0 0.0047784 -0.00479746 0 0.04 0.999903
163 2 32.4 0 0 0 0 0 -0.00477085 -0.00478042 0 0.04 0.999903
164 2 32.6 0 0 0 0 0 0.00477807 -0.00478878 0 0.04 0.999903
563 2 32.4 0.2 0 0 0 0 -0.00477113 -0.00478222 0 0.04 0.999903
564 2 32.6 0.2 0 0 0 0 0.00479074 -0.00479319 0 0.04 0.999903
963 2 32.4 0.4 0 0 0 0 -0.00478282 -0.00477329 0 0.04 0.999903
964 2 32.6 0.4 0 0 0 0 0.00477541 -0.00477277 0 0.04 0.999903
165 2 32.8 0 0 0 0 0 0.00477055 -0.00478408 0 0.04 0.999903
166 2 33 0 0 0 0 0 -0.00478803 -0.00477843 0 0.04 0.999903
167 2 33.2 0 0 0 0 0 0.00478482 -0.00476809 0 0.04 0.999903
565 2 32.8 0.2 0 0 0 0 0.00476612 -0.00479317 0 0.04 0.999903
566 2 33 0.2 0 0 0 0 -0.00478654 -0.00478243 0 0.04 0.999903
567 2 33.2 0.2 0 0 0 0 0.00477877 -0.00476816 0 0.04 0.999903
965 2 32.8 0.4 0 0 0 0 0.00478265 -0.00476855 0 0.04 0.999903
966 2 33 0.4 0 0 0 0 -0.0047841 -0.00478035 0 0.04 0.999903
967 2 33.2 0.4 0 0 0 0 0.00478568 -0.00479155 0 0.04 0.999903
168 2 33.4 0 0 0 0 0 -0.00479072 -0.0047824 0 0.04 0.999903
169 2 33.6 0 0 0 0 0 3.91501e-06 -0.00477135 0 0.04 0.999903
568 2 33.4 0.2 0 0 0 0 -0.00478464 -0.00479498 0 0.04 0.999903
569 2 33.6 0.2 0 0 0 0 1.37736e-05 -0.00478369 0 0.04 0.999903
968 2 33.4 0.4 0 0 0 0 -0.00477033 -0.00478244 0 0.04 0.999903
969 2 33.6 0.4 0 0 0 0 -2.70372e-06 -0.00477193 0 0.04 0.999903
170 2 33.8 0 0 0 0 0 0.00478157 -0.00477911 0 0.04 0.999903
171 2 34 0 0 0 0 0 -0.00477956 -0.00478443 0 0.04 0.999903
172 2 34.2 0 0 0 0 0 0.00478424 -0.00477543 0 0.04 0.999903
570 2 33.8 0.2 0 0 0 0 0.00477562 -0.00476717 0 0.04 0.999903
571 2 34 0.2 0 0 0 0 -0.00477997 -0.00478479 0 0.04 0.999903
572 2 34.2 0.2 0 0 0 0 0.00478162 -0.00477839 0 0.04 0.999903
970 2 33.8 0.4 0 0 0 0 0.0047745 -0.0047896 0 0.04 0.999903
971 2 34 0.4 0 0 0 0 -0.00479084 -0.00477921 0 0.04 0.999903
972 2 34.2 0.4 0 0 0 0 0.00478116 -0.00478275 0 0.04 0.999903
173 2 34.4 0 0 0 0 0 -0.00478538 -0.0047903 0 0.04 0.999903
174 2 34.6 0 0 0 0 0 6.72468e-06 -0.00476788 0 0.04 0.999903
573 2 34.4 0.2 0 0 0 0 -0.00478378 -0.00477636 0 0.04 0.999903
574 2 34.6 0.2 0 0 0 0 -3.8547e-06 -0.00477821 0 0.04 0.999903
973 2 34.4 0.4 0 0 0 0 -0.00478391 -0.00477833 0 0.04 0.999903
974 2 34.6 0.4 0 0 0 0 -3.43046e-07 -0.0047699 0 0.04 0.999903
175 2 34.8 0 0 0 0 0 0.00477875 -0.00478008 0 0.04 0.999903
176 2 35 0 0 0 0 0 -0.00476622 -0.0047799 0 0.04 0.999903
575 2 34.8 0.2 0 0 0 0 0.00477583 -0.0047779 0 0.04 0.999903
576 2 35 0.2 0 0 0 0 -0.00477274 -0.00477996 0 0.04 0.999903
975 2 34.8 0.4 0 0 0 0 0.00478237 -0.00477727 0 0.04 0.999903
976 2 35 0.4 0 0 0 0 -0.0047844 -0.00478396 0 0.04 0.999903
177 2 35.2 0 0 0 0 0 0.00477447 -0.00477587 0 0.04 0.999903
178 2 35.4 0 0 0 0 0 -0.00477277 -0.00478262 0 0.04 0.999903
179 2 35.6 0 0 0 0 0 -5.59385e-06 -0.00478968 0 0.04 0.999903
577 2 35.2 0.2 0 0 0 0 0.00478654 -0.00477935 0 0.04 0.999903
578 2 35.4 0.2 0 0 0 0 -0.00478475 -0.00478335 0 0.04 0.999903
579 2 35.6 0.2 0 0 0 0 -1.46545e-06 -0.0047722 0 0.04 0.999903
977 2 35.2 0.4 0 0 0 0 0.0047613 -0.00479316 0 0.04 0.999903
978 2 35.4 0.4 0 0 0 0 -0.00477488 -0.00477579 0 0.04 0.999903
979 2 35.6 0.4 0 0 0 0 -3.54231e-06 -0.00477357 0 0.04 0.999903
180 2 35.8 0 0 0 0 0 0.00477168 -0.00478763 0 0.04 0.999903
181 2 36 0 0 0 0 0 -0.00477707 -0.00477968 0 0.04 0.999903
580 2 35.8 0.2 0 0 0 0 0.0047735 -0.0047868 0 0.04 0.999903
581 2 36 0.2 0 0 0 0 -0.00477084 -0.00478301 0 0.04 0.999903
980 2 35.8 0.4 0 0 0 0 0.00478465 -0.00477623 0 0.04 0.999903
981 2 36 0.4 0 0 0 0 -0.00477449 -0.00477124 0 0.04 0.999903
182 2 36.2 0 0 0 0 0 0.00478331 -0.00477774 0 0.04 0.999903
183 2 36.4 0 0 0 0 0 -0.0047748 -0.00478473 0 0.04 0.999903
184 2 36.6 0 0 0 0 0 -7.48747e-06 -0.00477775 0 0.04 0.999903
582 2 36.2 0.2 0 0 0 0 0.0047775 -0.00476949 0 0.04 0.999903
583 2 36.4 0.2 0 0 0 0 -0.00478887 -0.00478858 0 0.04 0.999903
584 2 36.6 0.2 0 0 0 0 8.10097e-06 -0.00478682 0 0.04 0.999903
982 2 36.2 0.4 0 0 0 0 0.00477807 -0.00479411 0 0.04 0.999903
983 2 36.4 0.4 0 0 0 0 -0.00478004 -0.00477808 0 0.04 0.999903
984 2 36.6 0.4 0 0 0 0 -1.32654e-05 -0.00477659 0 0.04 0.999903
185 2 36.8 0 0 0 0 0 0.00476115 -0.00477891 0 0.04 0.999903
186 2 37 0 0 0 0 0 -0.00478531 -0.00477866 0 0.04 0.999903
585 2 36.8 0.2 0 0 0 0 0.0047783 -0.00478247 0 0.04 0.999903
586 2 37 0.2 0 0 0 0 -0.00477262 -0.00476887 0 0.04 0.999903
985 2 36.8 0.4 0 0 0 0 0.00477605 -0.00478328 0 0.04 0.999903
986 2 37 0.4 0 0 0 0 -0.00477624 -0.00478002 0 0.04 0.999903
187 2 37.2 0 0 0 0 0 0.004782 -0.00479204 0 0.04 0.999903
188 2 37.4 0 0 0 0 0 -0.00477793 -0.00477791 0 0.04 0.999903
587 2 37.2 0.2 0 0 0 0 0.0047754 -0.00477948 0 0.04 0.999903
588 2 37.4 0.2 0 0 0 0 -0.00476997 -0.00477461 0 0.04 0.999903
987 2 37.2 0.4 0 0 0 0 0.00478767 -0.00477656 0 0.04 0.999903
988 2 37.4 0.4 0 0 0 0 -0.00478061 -0.00477605 0 0.04 0.999903
189 2 37.6 0 0 0 0 0 -0.00477296 -0.00476779 0 0.04 0.999903
190 2 37.8 0 0 0 0 0 0.004784 -0.00478477 0 0.04 0.999903
191 2 38 0 0 0 0 0 -0.00478626 -0.00478232 0 0.04 0.999903
589 2 37.6 0.2 0 0 0 0 -0.0047727 -0.00478184 0 0.04 0.999903
590 2 37.8 0.2 0 0 0 0 0.00477984 -0.00477342 0 0.04 0.999903
591 2 38 0.2 0 0 0 0 -0.00479026 -0.00477874 0 0.04 0.999903
989 2 37.6 0.4 0 0 0 0 -0.00478264 -0.004785 0 0.04 0.999903
990 2 37.8 0.4 0 0 0 0 0.00478058 -0.00479534 0 0.04 0.999903
991 2 38 0.4 0 0 0 0 -0.00478073 -0.00478746 0 0.04 0.999903
192 2 38.2 0 0 0 0 0 0.00477689 -0.00478165 0 0.04 0.999903
193 2 38.4 0 0 0 0 0 0.00477901 -0.00478046 0 0.04 0.999903
592 2 38.2 0.2 0 0 0 0 0.00477733 -0.00477229 0 0.04 0.999903
593 2 38.4 0.2 0 0 0 0 0.00476831 -0.00478952 0 0.04 0.999903
992 2 38.2 0.4 0 0 0 0 0.00478434 -0.00476247 0 0.04 0.999903
993 2 38.4 0.4 0 0 0 0 0.00478162 -0.00477986 0 0.04 0.999903
194 2 38.6 0 0 0 0 0 -0.00477657 -0.00477542 0 0.04 0.999903
195 2 38.8 0 0 0 0 0 0.0047873 -0.00478373 0 0.04 0.999903
196 2 39 0 0 0 0 0 -0.0047901 -0.00478121 0 0.04 0.999903
594 2 38.6 0.2 0 0 0 0 -0.00476875 -0.00477935 0 0.04 0.999903
595 2 38.8 0.2 0 0 0 0 0.00477712 -0.00477589 0 0.04 0.999903
596 2 39 0.2 0 0 0 0 -0.00477198 -0.0047848 0 0.04 0.999903
994 2 38.6 0.4 0 0 0 0 -0.00477192 -0.00478383 0 0.04 0.999903
995 2 38.8 0.4 0 0 0 0 0.00477731 -0.00477224 0 0.04 0.999903
996 2 39 0.4 0 0 0 0 -0.00478293 -0.00477889 0 0.04 0.999903
197 2 39.2 0 0 0 0 0 2.31122e-07 -0.00478962 0 0.04 0.999903
198 2 39.4 0 0 0 0 0 0.0047754 -0.00477776 0 0.04 0.999903
597 2 39.2 0.2 0 0 0 0 -9.72212e-06 -0.00479339 0 0.04 0.999903
598 2 39.4 0.2 0 0 0 0 0.00478114 -0.00477876 0 0.04 0.999903
997 2 39.2 0.4 0 0 0 0 -8.09689e-06 -0.00477641 0 0.04 0.999903
998 2 39.4 0.4 0 0 0 0 0.00477494 -0.00476563 0 0.04 0.999903
199 2 39.6 0 0 0 0 0 -0.00478227 -0.00478564 0 0.04 0.999903
200 2 39.8 0 0 0 0 0 0.00478183 -0.00478388 0 0.04 0.999903
599 2 39.6 0.2 0 0 0 0 -0.00478632 -0.00477796 0 0.04 0.999903
600 2 39.8 0.2 0 0 0 0 0.00477983 -0.00476254 0 0.04 0.999903
999 2 39.6 0.4 0 0 0 0 -0.0047866 -0.00477207 0 0.04 0.999903
1000 2 39.8 0.4 0 0 0 0 0.00478744 -0.00477501 0 0.04 0.999903
201 2 40 0 0 0 0 0 -0.00477958 -0.00477202 0 0.04 0.999903
202 2 40.2 0 0 0 0 0 -8.75929e-06 -0.00477351 0 0.04 0.999903
203 2 40.4 0 0 0 0 0 0.00477494 -0.00476683 0 0.04 0.999903
601 2 40 0.2 0 0 0 0 -0.0047735 -0.00478513 0 0.04 0.999903
602 2 40.2 0.2 0 0 0 0 -2.07228e-06 -0.0047791 0 0.04 0.999903
603 2 40.4 0.2 0 0 0 0 0.00477754 -0.00478157 0 0.04 0.999903
1001 2 40 0.4 0 0 0 0 -0.00478141 -0.00478504 0 0.04 0.999903
1002 2 40.2 0.4 0 0 0 0 9.26611e-06 -0.00478154 0 0.04 0.999903
1003 2 40.4 0.4 0 0 0 0 0.00479067 -0.00477807 0 0.04 0.999903
204 2 40.6 0 0 0 0 0 -0.00479214 -0.00477174 0 0.04 0.999903
205 2 40.8 0 0 0 0 0 0.00478419 -0.00478434 0 0.04 0.999903
604 2 40.6 0.2 0 0 0 0 -0.00476642 -0.00476529 0 0.04 0.999903
605 2 40.8 0.2 0 0 0 0 0.00478253 -0.00478389 0 0.04 0.999903
1004 2 40.6 0.4 0 0 0 0 -0.00479314 -0.00478198 0 0.04 0.999903
1005 2 40.8 0.4 0 0 0 0 0.00478027 -0.00477832 0 0.04 0.999903
206 2 41 0 0 0 0 0 -0.00477584 -0.00478847 0 0.04 0.999903
207 2 41.2 0 0 0 0 0 -5.39804e-06 -0.00478092 0 0.04 0.999903
208 2 41.4 0 0 0 0 0 0.00478083 -0.00478407 0 0.04 0.999903
606 2 41 0.2 0 0 0 0 -0.00478176 -0.00478199 0 0.04 0.999903
607 2 41.2 0.2 0 0 0 0 -1.09604e-05 -0.00477989 0 0.04 0.999903
608 2 41.4 0.2 0 0 0 0 0.00478114 -0.00477256 0 0.04 0.999903
1006 2 41 0.4 0 0 0 0 -0.00478207 -0.00478593 0 0.04 0.999903
1007 2 41.2 0.4 0 0 0 0 1.01305e-06 -0.00477926 0 0.04 0.999903
1008 2 41.4 0.4 0 0 0 0 0.00478352 -0.00477072 0 0.04 0.999903
209 2 41.6 0 0 0 0 0 -0.00477592 -0.00478189 0 0.04 0.999903
210 2 41.8 0 0 0 0 0 0.0115581 -0.00477229 0 0.04 0.999903
609 2 41.6 0.2 0 0 0 0 -0.00477066 -0.00477499 0 0.04 0.999903
610 2 41.8 0.2 0 0 0 0 0.00995478 -0.00586999 0 0.04 0.999903
1009 2 41.6 0.4 0 0 0 0 -0.00478816 -0.00478176 0 0.04 0.999903
1010 2 41.8 0.4 0 0 0 0 0.00695661 -0.00565931 0 0.04 0.999903
211 2 42 0 0 0 0 0 0.0870635 -0.00476889 0 0.04 0.999903
212 2 42.2 0 0 0 0 0 0.46361 -0.00478047 0 0.04 0.999903
213 2 42.4 0 0 0 0 0 1.21284 -0.00477515 0 0.04 0.996259
611 2 42 0.2 0 0 0 0 0.0694357 -0.0199154 0 0.04 0.999903
612 2 42.2 0.2 0 0 0 0 0.390903 -0.0980557 0 0.04 0.999903
613 2 42.4 0.2 0 0 0 0 1.07232 -0.30313 0 0.04 0.997936
1011 2 42 0.4 0 0 0 0 0.0333848 -0.0202682 0 0.04 0.999903
1012 2 42.2 0.4 0 0 0 0 0.222976 -0.111447 0 0.04 0.999903
1013 2 42.4 0.4 0 0 0 0 0.709522 -0.405752 0 0.04 0.99978
214 2 42.6 0 0 0 0 0 1.97785 -0.00478634 0 0.04 0.964785
215 2 42.8 0 0 0 0 0 2.30965 -0.00477958 0 0.04 0.884012
614 2 42.6 0.2 0 0 0 0 1.87974 -0.573639 0 0.04 0.975714
615 2 42.8 0.2 0 0 0 0 2.03576 -0.668788 0 0.04 0.913638
1014 2 42.6 0.4 0 0 0 0 1.45236 -0.947366 0 0.04 0.993563
1015 2 42.8 0.4 0 0 0 0 2.03967 -1.47882 0 0.04 0.969374
616 2 43 0.2 0 0 0 0 0.123269 -0.1239 0 0.04 0.799108
617 2 43.2 0.2 0 0 0 0 -3.12811 3.19616 0 0.04 0.63977
1016 2 43 0.4 0 0 0 0 1.80643 -1.2651 0 0.04 0.915555
1017 2 43.2 0.4 0 0 0 0 0.453353 0.51643 0 0.04 0.829413
1018 2 43.4 0.4 0 0 0 0 -1.8671 3.74783 0 0.04 0.711238
1019 2 43.6 0.4 0 0 0 0 -4.25639 9.23819 0 0.04 0.572033
1282 2 16.2 0.6 0 0 0 0 6.76592 -3.01311e-07 0 0.04 0.661645
1682 2 16.2 0.8 0 0 0 0 6.76591 4.26995e-06 0 0.04 0.661645
1283 2 16.4 0.6 0 0 0 0 -1.80942 -7.11478e-06 0 0.04 0.903481
1284 2 16.6 0.6 0 0 0 0 -3.62703 1.44652e-05 0 0.04 0.992079
1285 2 16.8 0.6 0 0 0 0 -1.7307 -6.239e-07 0 0.04 0.999903
1683 2 16.4 0.8 0 0 0 0 -1.80943 2.17085e-06 0 0.04 0.903481
1684 2 16.6 0.8 0 0 0 0 -3.62703 -2.31286e-06 0 0.04 0.992079
1685 2 16.8 0.8 0 0 0 0 -1.73069 -1.17987e-05 0 0.04 0.999903
1286 2 17 0.6 0 0 0 0 -0.323963 -2.24115e-06 0 0.04 0.999903
1287 2 17.2 0.6 0 0 0 0 -0.0270225 -4.22131e-06 0 0.04 0.999903
1686 2 17 0.8 0 0 0 0 -0.323971 -8.11576e-06 0 0.04 0.999903
1687 2 17.2 0.8 0 0 0 0 -0.027044 -8.66416e-06 0 0.04 0.999903
1288 2 17.4 0.6 0 0 0 0 0.0047795 1.1883e-05 0 0.04 0.999903
1289 2 17.6 0.6 0 0 0 0 -7.14541e-07 6.04276e-06 0 0.04 0.999903
1290 2 17.8 0.6 0 0 0 0 7.64178e-06 -2.43754e-06 0 0.04 0.999903
1688 2 17.4 0.8 0 0 0 0 0.00477788 -3.60196e-06 0 0.04 0.999903
1689 2 17.6 0.8 0 0 0 0 -4.05093e-06 -4.49273e-07 0 0.04 0.999903
1690 2 17.8 0.8 0 0 0 0 -5.03253e-06 -1.67421e-05 0 0.04 0.999903
1291 2 18 0.6 0 0 0 0 -6.02256e-06 2.98443e-07 0 0.04 0.999903
1292 2 18.2 0.6 0 0 0 0 -0.00478121 -7.91666e-06 0 0.04 0.999903
1691 2 18 0.8 0 0 0 0 4.32248e-06 4.34472e-06 0 0.04 0.999903
1692 2 18.2 0.8 0 0 0 0 -0.00478481 -6.6807e-06 0 0.04 0.999903
1293 2 18.4 0.6 0 0 0 0 1.65607e-05 -6.52625e-06 0 0.04 0.999903
1294 2 18.6 0.6 0 0 0 0 -1.30542e-05 -4.76501e-06 0 0.04 0.999903
1693 2 18.4 0.8 0 0 0 0 -4.29258e-07 3.73156e-06 0 0.04 0.999903
1694 2 18.6 0.8 0 0 0 0 7.17548e-07 -1.05658e-05 0 0.04 0.999903
1295 2 18.8 0.6 0 0 0 0 -9.77637e-06 3.26104e-06 0 0.04 0.999903
1296 2 19 0.6 0 0 0 0 -5.3103e-06 1.72868e-06 0 0.04 0.999903
1297 2 19.2 0.6 0 0 0 0 0.00478932 -4.98806e-06 0 0.04 0.999903
1695 2 18.8 0.8 0 0 0 0 -3.73945e-06 -1.22652e-05 0 0.04 0.999903
1696 2 19 0.8 0 0 0 0 2.00566e-06 7.62036e-06 0 0.04 0.999903
1697 2 19.2 0.8 0 0 0 0 0.00477105 -2.22585e-06 0 0.04 0.999903
1298 2 19.4 0.6 0 0 0 0 5.11685e-06 -1.09095e-05 0 0.04 0.999903
1299 2 19.6 0.6 0 0 0 0 2.26846e-06 7.04416e-06 0 0.04 0.999903
1698 2 19.4 0.8 0 0 0 0 2.60689e-06 4.23735e-06 0 0.04 0.999903
1699 2 19.6 0.8 0 0 0 0 1.35578e-06 -6.43066e-06 0 0.04 0.999903
1300 2 19.8 0.6 0 0 0 0 4.98875e-06 1.06004e-05 0 0.04 0.999903
1301 2 20 0.6 0 0 0 0 -0.00477855 7.42641e-06 0 0.04 0.999903
1302 2 20.2 0.6 0 0 0 0 0.00477373 8.70804e-06 0 0.04 0.999903
1700 2 19.8 0.8 0 0 0 0 5.10785e-06 -9.92516e-07 0 0.04 0.999903
1701 2 20 0.8 0 0 0 0 -0.00479728 -3.02e-06 0 0.04 0.999903
1702 2 20.2 0.8 0 0 0 0 0.00479153 1.61334e-06 0 0.04 0.999903
1303 2 20.4 0.6 0 0 0 0 9.95802e-06 -1.08566e-05 0 0.04 0.999903
1304 2 20.6 0.6 0 0 0 0 6.65083e-06 -1.15423e-06 0 0.04 0.999903
1703 2 20.4 0.8 0 0 0 0 8.1617e-07 -2.42044e-06 0 0.04 0.999903
1704 2 20.6 0.8 0 0 0 0 -8.26371e-06 -2.04177e-07 0 0.04 0.999903
1305 2 20.8 0.6 0 0 0 0 4.04377e-06 -1.0073e-06 0 0.04 0.999903
1306 2 21 0.6 0 0 0 0 -0.00477553 -7.35138e-06 0 0.04 0.999903
1307 2 21.2 0.6 0 0 0 0 0.00477462 1.031e-05 0 0.04 0.999903
1705 2 20.8 0.8 0 0 0 0 -2.37973e-06 2.78608e-07 0 0.04 0.999903
1706 2 21 0.8 0 0 0 0 -0.00477095 9.3645e-06 0 0.04 0.999903
1707 2 21.2 0.8 0 0 0 0 0.00476961 3.02212e-06 0 0.04 0.999903
1308 2 21.4 0.6 0 0 0 0 -7.44803e-06 -5.90871e-06 0 0.04 0.999903
1309 2 21.6 0.6 0 0 0 0 -2.86541e-06 4.81393e-06 0 0.04 0.999903
1708 2 21.4 0.8 0 0 0 0 5.98872e-06 7.11964e-06 0 0.04 0.999903
1709 2 21.6 0.8 0 0 0 0 -8.54651e-06 9.99571e-06 0 0.04 0.999903
1310 2 21.8 0.6 0 0 0 0 -3.42515e-06 2.0224e-06 0 0.04 0.999903
1311 2 22 0.6 0 0 0 0 -0.00478431 7.08413e-06 0 0.04 0.999903
1710 2 21.8 0.8 0 0 0 0 -7.10766e-06 -4.23907e-06 0 0.04 0.999903
1711 2 22 0.8 0 0 0 0 -0.0047784 7.59984e-06 0 0.04 0.999903
1312 2 22.2 0.6 0 0 0 0 0.00477648 4.20632e-06 0 0.04 0.999903
1313 2 22.4 0.6 0 0 0 0 1.26719e-05 5.37763e-07 0 0.04 0.999903
1314 2 22.6 0.6 0 0 0 0 3.03067e-07 8.13606e-06 0 0.04 0.999903
1712 2 22.2 0.8 0 0 0 0 0.00476867 4.01419e-06 0 0.04 0.999903
1713 2 22.4 0.8 0 0 0 0 -4.56027e-06 1.21225e-05 0 0.04 0.999903
1714 2 22.6 0.8 0 0 0 0 6.03155e-06 6.39182e-06 0 0.04 0.999903
1315 2 22.8 0.6 0 0 0 0 -2.20142e-07 6.93841e-06 0 0.04 0.999903
1316 2 23 0.6 0 0 0 0 -0.00478188 8.05213e-06 0 0.04 0.999903
1715 2 22.8 0.8 0 0 0 0 4.57434e-06 1.26176e-06 0 0.04 0.999903
1716 2 23 0.8 0 0 0 0 -0.00478783 4.14976e-07 0 0.04 0.999903
1317 2 23.2 0.6 0 0 0 0 0.00478963 3.6506e-06 0 0.04 0.999903
1318 2 23.4 0.6 0 0 0 0 -1.55991e-06 5.78792e-06 0 0.04 0.999903
1319 2 23.6 0.6 0 0 0 0 -9.46494e-06 -9.69392e-06 0 0.04 0.999903
1717 2 23.2 0.8 0 0 0 0 0.00477519 -6.56349e-06 0 0.04 0.999903