ITEM: TIMESTEP
0
ITEM: NUMBER OF ATOMS
6920
ITEM: BOX BOUNDS pp pp pp
0.0000000000000000e+00 3.2000000000000000e+01
0.0000000000000000e+00 2.0000000000000000e+01
0.0000000000000000e+00 2.0000000000000001e-01
ITEM: ATOMS id type x y z vx vy vz fx fy fz mass c_density c_peratom[1] c_peratom[2] c_peratom[3] c_peratom[4] c_grad_1 c_grad_2 c_grad_3 c_grad_4 c_gamma
3396 2 7 4.2 0 0 0 0 9.28051 9.29007 0 0.04 0.436537 1.64137 1.64519 -0 0.667239 0 0 0 0 0
3397 2 7.2 4.2 0 0 0 0 2.08527 7.21642 0 0.04 0.595875 1.33713 1.30063 -0 0.076607 0 0 0 0 0
3398 2 7.4 4.2 0 0 0 0 -1.23189 5.98554 0 0.04 0.655911 1.86654 1.0701 -0 -0.111957 0 0 0 0 0
3399 2 7.6 4.2 0 0 0 0 -0.934973 5.30706 0 0.04 0.661645 1.96238 0.948876 -0 -0.0606021 0 0 0 0 0
3400 2 7.8 4.2 0 0 0 0 -0.144704 5.06745 0 0.04 0.661645 1.76826 0.910978 -0 -0.0102394 0 0 0 0 0
3401 2 8 4.2 0 0 0 0 -0.0198389 5.03071 0 0.04 0.661645 1.72838 0.905579 -0 -0.000663857 0 0 0 0 0
3402 2 8.2 4.2 0 0 0 0 0.00956748 5.02849 0 0.04 0.661645 1.7253 0.905278 -0 4.13941e-07 0 0 0 0 0
3403 2 8.4 4.2 0 0 0 0 -0.00956257 5.02849 0 0.04 0.661645 1.7253 0.905278 -0 2.93701e-07 0 0 0 0 0
3404 2 8.6 4.2 0 0 0 0 -0.00956455 5.02848 0 0.04 0.661645 1.7253 0.905277 -0 -5.49183e-07 0 0 0 0 0
3405 2 8.8 4.2 0 0 0 0 1.14715e-05 5.02849 0 0.04 0.661645 1.72147 0.905278 -0 4.03101e-07 0 0 0 0 0
3406 2 9 4.2 0 0 0 0 -0.00956012 5.02848 0 0.04 0.661645 1.7253 0.905277 -0 1.8454e-07 0 0 0 0 0
3407 2 9.2 4.2 0 0 0 0 0.00955252 5.02849 0 0.04 0.661645 1.7253 0.905279 -0 -7.32683e-08 0 0 0 0 0
3408 2 9.4 4.2 0 0 0 0 -2.38501e-06 5.0285 0 0.04 0.661645 1.72147 0.905279 -0 6.68785e-07 0 0 0 0 0
3409 2 9.6 4.2 0 0 0 0 0.00956869 5.02848 0 0.04 0.661645 1.72529 0.905277 -0 4.60535e-07 0 0 0 0 0
3410 2 9.8 4.2 0 0 0 0 -5.21404e-06 5.0285 0 0.04 0.661645 1.72147 0.905279 -0 2.68542e-07 0 0 0 0 0
3411 2 10 4.2 0 0 0 0 -0.00954855 5.02849 0 0.04 0.661645 1.7253 0.905279 -0 1.98932e-07 0 0 0 0 0
3412 2 10.2 4.2 0 0 0 0 0.00956135 5.02849 0 0.04 0.661645 1.7253 0.905279 -0 3.32841e-07 0 0 0 0 0
3413 2 10.4 4.2 0 0 0 0 -0.00956357 5.0285 0 0.04 0.661645 1.7253 0.90528 -0 -2.23107e-07 0 0 0 0 0
3414 2 10.6 4.2 0 0 0 0 0.0095603 5.0285 0 0.04 0.661645 1.7253 0.905279 -0 1.82678e-07 0 0 0 0 0
3415 2 10.8 4.2 0 0 0 0 2.42608e-06 5.02848 0 0.04 0.661645 1.72147 0.905277 -0 2.03686e-07 0 0 0 0 0
3416 2 11 4.2 0 0 0 0 -0.00956953 5.02849 0 0.04 0.661645 1.7253 0.905278 -0 -1.02787e-06 0 0 0 0 0
3417 2 11.2 4.2 0 0 0 0 0.0095604 5.02849 0 0.04 0.661645 1.7253 0.905277 -0 2.24408e-07 0 0 0 0 0
3418 2 11.4 4.2 0 0 0 0 -0.00954897 5.02849 0 0.04 0.661645 1.7253 0.905277 -0 4.25143e-07 0 0 0 0 0
3419 2 11.6 4.2 0 0 0 0 0.00955724 5.0285 0 0.04 0.661645 1.7253 0.905279 -0 -1.09381e-07 0 0 0 0 0
3420 2 11.8 4.2 0 0 0 0 1.60796e-05 5.0285 0 0.04 0.661645 1.72147 0.905278 -0 3.87953e-07 0 0 0 0 0
3421 2 12 4.2 0 0 0 0 -0.0095772 5.0285 0 0.04 0.661645 1.7253 0.905278 -0 -6.60135e-07 0 0 0 0 0
3422 2 12.2 4.2 0 0 0 0 0.00956194 5.0285 0 0.04 0.661645 1.7253 0.905279 -0 3.52721e-07 0 0 0 0 0
3423 2 12.4 4.2 0 0 0 0 -0.00955714 5.02848 0 0.04 0.661645 1.72529 0.905276 -0 -2.95952e-07 0 0 0 0 0
3424 2 12.6 4.2 0 0 0 0 0.00955637 5.02848 0 0.04 0.661645 1.7253 0.905277 -0 -1.48367e-07 0 0 0 0 0
3425 2 12.8 4.2 0 0 0 0 7.84325e-06 5.02848 0 0.04 0.661645 1.72147 0.905276 -0 6.50204e-07 0 0 0 0 0
3426 2 13 4.2 0 0 0 0 -0.00956161 5.02849 0 0.04 0.661645 1.72529 0.905277 -0 4.7388e-07 0 0 0 0 0
3427 2 13.2 4.2 0 0 0 0 0.00955691 5.02848 0 0.04 0.661645 1.7253 0.905277 -0 2.2063e-07 0 0 0 0 0
3428 2 13.4 4.2 0 0 0 0 -0.00955837 5.02849 0 0.04 0.661645 1.7253 0.905278 -0 -1.33898e-07 0 0 0 0 0
3429 2 13.6 4.2 0 0 0 0 0.00955341 5.02848 0 0.04 0.661645 1.72529 0.905276 -0 2.52127e-07 0 0 0 0 0
3430 2 13.8 4.2 0 0 0 0 2.68303e-06 5.02848 0 0.04 0.661645 1.72147 0.905276 -0 5.89541e-08 0 0 0 0 0
3431 2 14 4.2 0 0 0 0 -0.00955956 5.02849 0 0.04 0.661645 1.7253 0.905277 -0 1.4133e-07 0 0 0 0 0
3432 2 14.2 4.2 0 0 0 0 0.00957785 5.02849 0 0.04 0.661645 1.7253 0.905278 -0 4.75409e-07 0 0 0 0 0
3433 2 14.4 4.2 0 0 0 0 -0.00956632 5.02849 0 0.04 0.661645 1.7253 0.905277 -0 5.53074e-07 0 0 0 0 0
3434 2 14.6 4.2 0 0 0 0 0.00956824 5.02849 0 0.04 0.661645 1.7253 0.905279 -0 1.17734e-06 0 0 0 0 0
3435 2 14.8 4.2 0 0 0 0 7.36964e-06 5.02849 0 0.04 0.661645 1.72147 0.905278 -0 5.31104e-08 0 0 0 0 0
3436 2 15 4.2 0 0 0 0 -0.00954826 5.02849 0 0.04 0.661645 1.7253 0.905278 -0 1.04271e-06 0 0 0 0 0
3437 2 15.2 4.2 0 0 0 0 0.00956175 5.0285 0 0.04 0.661645 1.7253 0.905279 -0 -5.94057e-09 0 0 0 0 0
3438 2 15.4 4.2 0 0 0 0 8.70034e-08 5.02848 0 0.04 0.661645 1.72912 0.905277 -0 -6.44552e-08 0 0 0 0 0
3439 2 15.6 4.2 0 0 0 0 -1.41008e-05 5.02848 0 0.04 0.661645 1.72147 0.905277 -0 -9.09032e-07 0 0 0 0 0
3440 2 15.8 4.2 0 0 0 0 9.952e-06 5.0285 0 0.04 0.661645 1.72147 0.90528 -0 5.38745e-07 0 0 0 0 0
3441 2 16 4.2 0 0 0 0 -0.00956058 5.02849 0 0.04 0.661645 1.7253 0.905277 -0 5.27388e-08 0 0 0 0 0
3442 2 16.2 4.2 0 0 0 0 -0.00955081 5.0285 0 0.04 0.661645 1.7253 0.905279 -0 4.46955e-07 0 0 0 0 0
3443 2 16.4 4.2 0 0 0 0 0.00956242 5.02849 0 0.04 0.661645 1.7253 0.905278 -0 5.43584e-07 0 0 0 0 0
3444 2 16.6 4.2 0 0 0 0 -3.27284e-06 5.0285 0 0.04 0.661645 1.72147 0.905279 -0 -1.54004e-07 0 0 0 0 0
3445 2 16.8 4.2 0 0 0 0 1.63802e-06 5.02849 0 0.04 0.661645 1.72147 0.905278 -0 2.98546e-07 0 0 0 0 0
3446 2 17 4.2 0 0 0 0 -7.25562e-07 5.02849 0 0.04 0.661645 1.72147 0.905279 -0 2.61486e-07 0 0 0 0 0
3447 2 17.2 4.2 0 0 0 0 -0.00956049 5.02849 0 0.04 0.661645 1.7253 0.905278 -0 -2.81012e-07 0 0 0 0 0
3448 2 17.4 4.2 0 0 0 0 0.00956633 5.02849 0 0.04 0.661645 1.7253 0.905278 -0 -2.8623e-08 0 0 0 0 0
3449 2 17.6 4.2 0 0 0 0 -8.77283e-06 5.0285 0 0.04 0.661645 1.72147 0.905279 -0 -3.33583e-07 0 0 0 0 0
3450 2 17.8 4.2 0 0 0 0 9.34161e-06 5.02849 0 0.04 0.661645 1.72147 0.905278 -0 1.40635e-06 0 0 0 0 0
3451 2 18 4.2 0 0 0 0 1.41747e-06 5.02849 0 0.04 0.661645 1.72147 0.905277 -0 -5.76797e-08 0 0 0 0 0
3452 2 18.2 4.2 0 0 0 0 -0.00954716 5.0285 0 0.04 0.661645 1.7253 0.905279 -0 1.30948e-06 0 0 0 0 0
3453 2 18.4 4.2 0 0 0 0 3.30739e-06 5.02849 0 0.04 0.661645 1.72147 0.905278 -0 7.80043e-07 0 0 0 0 0
3454 2 18.6 4.2 0 0 0 0 -2.48225e-06 5.02848 0 0.04 0.661645 1.72147 0.905275 -0 5.43204e-07 0 0 0 0 0
3455 2 18.8 4.2 0 0 0 0 4.2128e-06 5.02849 0 0.04 0.661645 1.72147 0.905277 -0 -3.43553e-07 0 0 0 0 0
3456 2 19 4.2 0 0 0 0 -1.22936e-05 5.0285 0 0.04 0.661645 1.72147 0.905279 -0 -7.40912e-07 0 0 0 0 0
3457 2 19.2 4.2 0 0 0 0 0.00956432 5.02849 0 0.04 0.661645 1.7253 0.905278 -0 -4.42674e-07 0 0 0 0 0
3458 2 19.4 4.2 0 0 0 0 -9.94429e-07 5.0285 0 0.04 0.661645 1.72147 0.905279 -0 5.14025e-07 0 0 0 0 0
3459 2 19.6 4.2 0 0 0 0 7.45937e-06 5.02849 0 0.04 0.661645 1.72147 0.905277 -0 -2.64774e-07 0 0 0 0 0
3460 2 19.8 4.2 0 0 0 0 -9.30056e-06 5.02848 0 0.04 0.661645 1.72147 0.905276 -0 -7.70074e-08 0 0 0 0 0
3461 2 20 4.2 0 0 0 0 -0.00956575 5.0285 0 0.04 0.661645 1.7253 0.905279 -0 -2.50946e-07 0 0 0 0 0
3462 2 20.2 4.2 0 0 0 0 0.00956428 5.02848 0 0.04 0.661645 1.7253 0.905277 -0 -4.25031e-07 0 0 0 0 0
3463 2 20.4 4.2 0 0 0 0 -1.99416e-06 5.0285 0 0.04 0.661645 1.72148 0.905279 -0 1.57395e-07 0 0 0 0 0
3464 2 20.6 4.2 0 0 0 0 -1.28486e-06 5.0285 0 0.04 0.661645 1.72147 0.905279 -0 -4.59551e-07 0 0 0 0 0
3465 2 20.8 4.2 0 0 0 0 4.53969e-06 5.02849 0 0.04 0.661645 1.72148 0.905279 -0 5.34127e-07 0 0 0 0 0
3466 2 21 4.2 0 0 0 0 -0.00956738 5.02849 0 0.04 0.661645 1.7253 0.905278 -0 1.80917e-07 0 0 0 0 0
3467 2 21.2 4.2 0 0 0 0 0.00955694 5.02849 0 0.04 0.661645 1.7253 0.905279 -0 -2.78212e-07 0 0 0 0 0
3468 2 21.4 4.2 0 0 0 0 -6.85691e-06 5.0285 0 0.04 0.661645 1.72147 0.905278 -0 2.551e-08 0 0 0 0 0
3469 2 21.6 4.2 0 0 0 0 2.13452e-06 5.0285 0 0.04 0.661645 1.72147 0.905278 -0 -6.65701e-08 0 0 0 0 0
3470 2 21.8 4.2 0 0 0 0 1.18602e-05 5.02849 0 0.04 0.661645 1.72147 0.905278 -0 2.75696e-07 0 0 0 0 0
3471 2 22 4.2 0 0 0 0 -0.00956015 5.0285 0 0.04 0.661645 1.7253 0.905278 -0 -1.71267e-07 0 0 0 0 0
3472 2 22.2 4.2 0 0 0 0 0.00955726 5.02848 0 0.04 0.661645 1.7253 0.905277 -0 -9.62934e-07 0 0 0 0 0
3473 2 22.4 4.2 0 0 0 0 -2.26985e-06 5.02849 0 0.04 0.661645 1.72147 0.905278 -0 3.60708e-07 0 0 0 0 0
3474 2 22.6 4.2 0 0 0 0 -4.58294e-06 5.02849 0 0.04 0.661645 1.72147 0.905278 -0 -1.00295e-07 0 0 0 0 0
3475 2 22.8 4.2 0 0 0 0 -6.19545e-06 5.02849 0 0.04 0.661645 1.72147 0.905278 -0 -3.78816e-07 0 0 0 0 0
3476 2 23 4.2 0 0 0 0 -0.00954968 5.02849 0 0.04 0.661645 1.7253 0.905278 -0 2.37217e-07 0 0 0 0 0
3477 2 23.2 4.2 0 0 0 0 0.0095519 5.0285 0 0.04 0.661645 1.7253 0.905279 -0 -1.19981e-07 0 0 0 0 0
3478 2 23.4 4.2 0 0 0 0 -1.37449e-05 5.02849 0 0.04 0.661645 1.72147 0.905278 -0 -3.71982e-07 0 0 0 0 0
3479 2 23.6 4.2 0 0 0 0 8.17688e-06 5.02848 0 0.04 0.661645 1.72147 0.905277 -0 2.10938e-07 0 0 0 0 0
3480 2 23.8 4.2 0 0 0 0 0.0102778 5.0307 0 0.04 0.661645 1.72456 0.905577 -0 0.000664342 0 0 0 0 0
3481 2 24 4.2 0 0 0 0 0.144713 5.06744 0 0.04 0.661645 1.76826 0.910977 -0 0.0102406 0 0 0 0 0
3482 2 24.2 4.2 0 0 0 0 0.94453 5.30705 0 0.04 0.661645 1.95855 0.948874 -0 0.0606019 0 0 0 0 0
3483 2 24.4 4.2 0 0 0 0 1.2319 5.98554 0 0.04 0.655911 1.86654 1.07011 -0 0.111959 0 0 0 0 0
3484 2 24.6 4.2 0 0 0 0 -2.07571 7.21641 0 0.04 0.595875 1.33331 1.30063 -0 -0.0766077 0 0 0 0 0
3485 2 24.8 4.2 0 0 0 0 -9.28051 9.29008 0 0.04 0.436537 1.64137 1.6452 -0 -0.66724 0 0 0 0 0
3556 2 7 4.4 0 0 0 0 7.20687 2.08525 0 0.04 0.595875 1.29681 1.33713 -0 0.0766069 0 0 0 0 0
3557 2 7.2 4.4 0 0 0 0 0.568072 0.568072 0 0.04 0.813521 0.946867 0.946868 -0 -0.095472 0 0 0 0 0
3716 2 7 4.6 0 0 0 0 5.97598 -1.22232 0 0.04 0.655911 1.06628 1.87036 -0 -0.111958 0 0 0 0 0
3717 2 7.2 4.6 0 0 0 0 -0.728822 -2.25652 0 0.04 0.895779 0.570346 1.28777 -0 -0.0908856 0 0 0 0 0
3876 2 7 4.8 0 0 0 0 5.29748 -0.934964 0 0.04 0.661645 0.945049 1.96237 -0 -0.0606017 0 0 0 0 0
3877 2 7.2 4.8 0 0 0 0 -1.25098 -1.29746 0 0.04 0.903481 0.399134 1.22978 -0 -0.0309831 0 0 0 0 0
3558 2 7.4 4.4 0 0 0 0 -2.26609 -0.728824 0 0.04 0.895779 1.28395 0.570344 -0 -0.090885 0 0 0 0 0
3559 2 7.6 4.4 0 0 0 0 -1.29749 -1.25099 0 0.04 0.903481 1.22978 0.399133 -0 -0.0309826 0 0 0 0 0
3718 2 7.4 4.6 0 0 0 0 -2.9621 -2.95254 0 0.04 0.984255 0.650831 0.654656 -0 -0.0350732 0 0 0 0 0
3719 2 7.6 4.6 0 0 0 0 -1.45157 -3.14975 0 0.04 0.992079 0.452446 0.399493 -0 -0.0129418 0 0 0 0 0
3878 2 7.4 4.8 0 0 0 0 -3.15929 -1.45157 0 0.04 0.992079 0.395668 0.452445 -0 -0.0129417 0 0 0 0 0
3879 2 7.6 4.8 0 0 0 0 -1.51684 -1.51683 0 0.04 0.999903 0.164505 0.164505 -0 -0.00600694 0 0 0 0 0
3560 2 7.8 4.4 0 0 0 0 -0.222593 -1.38584 0 0.04 0.903481 0.97021 0.346171 -0 -0.00653402 0 0 0 0 0
3561 2 8 4.4 0 0 0 0 -0.0255754 -1.40986 0 0.04 0.903481 0.910345 0.338402 -0 -0.000432495 0 0 0 0 0
3562 2 8.2 4.4 0 0 0 0 0.00956212 -1.41132 0 0.04 0.903481 0.905547 0.337951 -0 -4.01617e-07 0 0 0 0 0
3720 2 7.8 4.6 0 0 0 0 -0.265854 -3.20888 0 0.04 0.992079 0.172739 0.329843 -0 -0.00316528 0 0 0 0 0
3721 2 8 4.6 0 0 0 0 -0.0287677 -3.2206 0 0.04 0.992079 0.101992 0.319722 -0 -0.000201698 0 0 0 0 0
3722 2 8.2 4.6 0 0 0 0 0.00954559 -3.22126 0 0.04 0.992079 0.0962259 0.319138 -0 7.54198e-07 0 0 0 0 0
3880 2 7.8 4.8 0 0 0 0 -0.285297 -1.54374 0 0.04 0.999903 -0.123089 0.089228 -0 -0.00109476 0 0 0 0 0
3881 2 8 4.8 0 0 0 0 -0.0301424 -1.54787 0 0.04 0.999903 -0.198752 0.0780256 -0 -6.07717e-05 0 0 0 0 0
3882 2 8.2 4.8 0 0 0 0 0.0095514 -1.54807 0 0.04 0.999903 -0.204928 0.0773818 -0 1.38729e-07 0 0 0 0 0
3563 2 8.4 4.4 0 0 0 0 -0.00956318 -1.41131 0 0.04 0.903481 0.905547 0.337952 -0 1.0427e-06 0 0 0 0 0
3564 2 8.6 4.4 0 0 0 0 -0.00955644 -1.41131 0 0.04 0.903481 0.905547 0.337952 -0 -7.22975e-07 0 0 0 0 0
3723 2 8.4 4.6 0 0 0 0 -0.00955272 -3.22127 0 0.04 0.992079 0.0962272 0.319139 -0 4.02299e-07 0 0 0 0 0
3724 2 8.6 4.6 0 0 0 0 -0.00956422 -3.22127 0 0.04 0.992079 0.0962244 0.319138 -0 -5.00626e-07 0 0 0 0 0
3883 2 8.4 4.8 0 0 0 0 -0.00955541 -1.54808 0 0.04 0.999903 -0.204928 0.0773783 -0 -1.02764e-07 0 0 0 0 0
3884 2 8.6 4.8 0 0 0 0 -0.00956132 -1.54808 0 0.04 0.999903 -0.204928 0.0773786 -0 5.78765e-07 0 0 0 0 0
3565 2 8.8 4.4 0 0 0 0 5.25837e-06 -1.41131 0 0.04 0.903481 0.901723 0.337951 -0 -1.18738e-07 0 0 0 0 0
3566 2 9 4.4 0 0 0 0 -0.00956436 -1.41131 0 0.04 0.903481 0.905545 0.33795 -0 8.01198e-07 0 0 0 0 0
3567 2 9.2 4.4 0 0 0 0 0.00956103 -1.41131 0 0.04 0.903481 0.905547 0.337953 -0 1.36511e-07 0 0 0 0 0
3725 2 8.8 4.6 0 0 0 0 -6.36717e-06 -3.22126 0 0.04 0.992079 0.0924048 0.319139 -0 -5.48175e-07 0 0 0 0 0
3726 2 9 4.6 0 0 0 0 -0.00956038 -3.22127 0 0.04 0.992079 0.0962263 0.319138 -0 -4.762e-07 0 0 0 0 0
3727 2 9.2 4.6 0 0 0 0 0.00956161 -3.22126 0 0.04 0.992079 0.0962277 0.319139 -0 7.89244e-07 0 0 0 0 0
3885 2 8.8 4.8 0 0 0 0 4.50808e-06 -1.54807 0 0.04 0.999903 -0.208752 0.0773799 -0 -2.30317e-07 0 0 0 0 0
3886 2 9 4.8 0 0 0 0 -0.00955194 -1.54808 0 0.04 0.999903 -0.204928 0.0773778 -0 -4.83066e-07 0 0 0 0 0
3887 2 9.2 4.8 0 0 0 0 0.00955396 -1.54808 0 0.04 0.999903 -0.20493 0.0773793 -0 -3.32674e-07 0 0 0 0 0
3568 2 9.4 4.4 0 0 0 0 -6.11875e-06 -1.41131 0 0.04 0.903481 0.901723 0.337952 -0 3.96914e-08 0 0 0 0 0
3569 2 9.6 4.4 0 0 0 0 0.00958375 -1.41132 0 0.04 0.903481 0.905546 0.33795 -0 2.49707e-07 0 0 0 0 0
3728 2 9.4 4.6 0 0 0 0 -1.31118e-05 -3.22128 0 0.04 0.992079 0.0924041 0.319136 -0 -1.95552e-08 0 0 0 0 0
3729 2 9.6 4.6 0 0 0 0 0.00956041 -3.22128 0 0.04 0.992079 0.0962277 0.319138 -0 6.99331e-07 0 0 0 0 0
3888 2 9.4 4.8 0 0 0 0 -1.01872e-05 -1.54806 0 0.04 0.999903 -0.20875 0.0773798 -0 3.30683e-07 0 0 0 0 0
3889 2 9.6 4.8 0 0 0 0 0.00955612 -1.54807 0 0.04 0.999903 -0.204928 0.0773786 -0 9.23032e-07 0 0 0 0 0
3570 2 9.8 4.4 0 0 0 0 -1.67698e-05 -1.41132 0 0.04 0.903481 0.901723 0.337952 -0 8.36379e-07 0 0 0 0 0
3571 2 10 4.4 0 0 0 0 -0.00955559 -1.4113 0 0.04 0.903481 0.905548 0.337952 -0 -3.01898e-07 0 0 0 0 0
3730 2 9.8 4.6 0 0 0 0 7.06832e-06 -3.22128 0 0.04 0.992079 0.0924032 0.319139 -0 -5.54282e-07 0 0 0 0 0
3731 2 10 4.6 0 0 0 0 -0.00955425 -3.22127 0 0.04 0.992079 0.0962277 0.319138 -0 -9.56502e-07 0 0 0 0 0
3890 2 9.8 4.8 0 0 0 0 1.22283e-05 -1.54808 0 0.04 0.999903 -0.208753 0.0773782 -0 -6.30583e-07 0 0 0 0 0
3891 2 10 4.8 0 0 0 0 -0.00956178 -1.54808 0 0.04 0.999903 -0.204929 0.0773789 -0 5.99418e-07 0 0 0 0 0
3572 2 10.2 4.4 0 0 0 0 0.00955417 -1.4113 0 0.04 0.903481 0.905547 0.337953 -0 -9.54024e-07 0 0 0 0 0
3573 2 10.4 4.4 0 0 0 0 -0.00956126 -1.41131 0 0.04 0.903481 0.905548 0.337953 -0 5.38244e-07 0 0 0 0 0
3574 2 10.6 4.4 0 0 0 0 0.00956287 -1.41131 0 0.04 0.903481 0.905546 0.337952 -0 -6.25281e-07 0 0 0 0 0
3732 2 10.2 4.6 0 0 0 0 0.00956257 -3.22127 0 0.04 0.992079 0.0962282 0.31914 -0 1.49435e-07 0 0 0 0 0
3733 2 10.4 4.6 0 0 0 0 -0.009554 -3.22128 0 0.04 0.992079 0.0962288 0.319139 -0 2.54641e-07 0 0 0 0 0
3734 2 10.6 4.6 0 0 0 0 0.00955324 -3.22127 0 0.04 0.992079 0.0962257 0.319139 -0 8.37012e-08 0 0 0 0 0
3892 2 10.2 4.8 0 0 0 0 0.00956274 -1.54807 0 0.04 0.999903 -0.204928 0.07738 -0 6.0288e-08 0 0 0 0 0
3893 2 10.4 4.8 0 0 0 0 -0.00956096 -1.54808 0 0.04 0.999903 -0.204928 0.0773791 -0 8.24073e-07 0 0 0 0 0
3894 2 10.6 4.8 0 0 0 0 0.00956363 -1.54807 0 0.04 0.999903 -0.204928 0.0773803 -0 8.37243e-07 0 0 0 0 0
3575 2 10.8 4.4 0 0 0 0 -7.99266e-06 -1.41131 0 0.04 0.903481 0.901724 0.337953 -0 8.99477e-07 0 0 0 0 0
3576 2 11 4.4 0 0 0 0 -0.00954963 -1.41133 0 0.04 0.903481 0.905548 0.337951 -0 1.50561e-07 0 0 0 0 0
3735 2 10.8 4.6 0 0 0 0 -3.06161e-06 -3.22128 0 0.04 0.992079 0.0924054 0.319137 -0 7.687e-07 0 0 0 0 0
3736 2 11 4.6 0 0 0 0 -0.00954887 -3.22126 0 0.04 0.992079 0.0962263 0.319138 -0 -6.3916e-09 0 0 0 0 0
3895 2 10.8 4.8 0 0 0 0 3.53256e-06 -1.54808 0 0.04 0.999903 -0.208751 0.0773806 -0 5.10795e-07 0 0 0 0 0
3896 2 11 4.8 0 0 0 0 -0.00956684 -1.54807 0 0.04 0.999903 -0.204927 0.0773788 -0 7.17965e-08 0 0 0 0 0
3577 2 11.2 4.4 0 0 0 0 0.00955248 -1.41131 0 0.04 0.903481 0.905546 0.33795 -0 -3.8357e-07 0 0 0 0 0
3578 2 11.4 4.4 0 0 0 0 -0.00955125 -1.41132 0 0.04 0.903481 0.905548 0.337952 -0 1.65027e-09 0 0 0 0 0
3579 2 11.6 4.4 0 0 0 0 0.00955595 -1.41132 0 0.04 0.903481 0.905548 0.337952 -0 -1.42919e-06 0 0 0 0 0
3737 2 11.2 4.6 0 0 0 0 0.00955309 -3.22126 0 0.04 0.992079 0.096226 0.319137 -0 -1.84727e-07 0 0 0 0 0
3738 2 11.4 4.6 0 0 0 0 -0.00955775 -3.22127 0 0.04 0.992079 0.0962259 0.319137 -0 4.66793e-07 0 0 0 0 0
3739 2 11.6 4.6 0 0 0 0 0.00956285 -3.22127 0 0.04 0.992079 0.0962286 0.31914 -0 3.77681e-07 0 0 0 0 0
3897 2 11.2 4.8 0 0 0 0 0.00955812 -1.54806 0 0.04 0.999903 -0.204927 0.0773805 -0 7.74151e-07 0 0 0 0 0
3898 2 11.4 4.8 0 0 0 0 -0.00955726 -1.54808 0 0.04 0.999903 -0.204928 0.0773795 -0 3.48174e-07 0 0 0 0 0
3899 2 11.6 4.8 0 0 0 0 0.00956727 -1.54807 0 0.04 0.999903 -0.204928 0.0773783 -0 3.74275e-07 0 0 0 0 0
3580 2 11.8 4.4 0 0 0 0 1.00481e-05 -1.41132 0 0.04 0.903481 0.901724 0.337952 -0 6.48702e-07 0 0 0 0 0
3581 2 12 4.4 0 0 0 0 -0.00956337 -1.41131 0 0.04 0.903481 0.905547 0.337953 -0 3.74362e-07 0 0 0 0 0
3740 2 11.8 4.6 0 0 0 0 6.83435e-06 -3.22126 0 0.04 0.992079 0.0924032 0.319138 -0 -4.27513e-07 0 0 0 0 0
3741 2 12 4.6 0 0 0 0 -0.00956426 -3.22127 0 0.04 0.992079 0.0962267 0.319139 -0 -1.16288e-06 0 0 0 0 0
3900 2 11.8 4.8 0 0 0 0 -1.00946e-05 -1.54808 0 0.04 0.999903 -0.208752 0.0773786 -0 -5.59645e-07 0 0 0 0 0
3901 2 12 4.8 0 0 0 0 -0.00955715 -1.54808 0 0.04 0.999903 -0.204926 0.0773786 -0 4.1759e-08 0 0 0 0 0
3582 2 12.2 4.4 0 0 0 0 0.00954251 -1.41131 0 0.04 0.903481 0.905547 0.337952 -0 6.28811e-07 0 0 0 0 0
3583 2 12.4 4.4 0 0 0 0 -0.00956365 -1.41132 0 0.04 0.903481 0.905548 0.337951 -0 1.0352e-06 0 0 0 0 0
3584 2 12.6 4.4 0 0 0 0 0.00955102 -1.41131 0 0.04 0.903481 0.905547 0.337952 -0 -3.51327e-07 0 0 0 0 0
3742 2 12.2 4.6 0 0 0 0 0.00956342 -3.22127 0 0.04 0.992079 0.096229 0.319137 -0 8.66169e-07 0 0 0 0 0
3743 2 12.4 4.6 0 0 0 0 -0.00955203 -3.22126 0 0.04 0.992079 0.0962267 0.319137 -0 9.03917e-07 0 0 0 0 0
3744 2 12.6 4.6 0 0 0 0 0.00956232 -3.22127 0 0.04 0.992079 0.0962269 0.319136 -0 -5.75619e-07 0 0 0 0 0
3902 2 12.2 4.8 0 0 0 0 0.00955156 -1.54807 0 0.04 0.999903 -0.204929 0.0773786 -0 6.82036e-07 0 0 0 0 0
3903 2 12.4 4.8 0 0 0 0 -0.00956671 -1.54808 0 0.04 0.999903 -0.204928 0.0773798 -0 -2.36192e-07 0 0 0 0 0
3904 2 12.6 4.8 0 0 0 0 0.00955939 -1.54807 0 0.04 0.999903 -0.204926 0.0773794 -0 4.91022e-07 0 0 0 0 0
3585 2 12.8 4.4 0 0 0 0 1.16173e-05 -1.41131 0 0.04 0.903481 0.901723 0.337951 -0 5.03779e-07 0 0 0 0 0
3586 2 13 4.4 0 0 0 0 -0.0095546 -1.4113 0 0.04 0.903481 0.905547 0.337953 -0 2.41598e-08 0 0 0 0 0
3745 2 12.8 4.6 0 0 0 0 -4.7353e-06 -3.22126 0 0.04 0.992079 0.0924043 0.319137 -0 -8.91387e-08 0 0 0 0 0
3746 2 13 4.6 0 0 0 0 -0.00956386 -3.22127 0 0.04 0.992079 0.0962281 0.319137 -0 -6.58042e-07 0 0 0 0 0
3905 2 12.8 4.8 0 0 0 0 1.25098e-05 -1.54808 0 0.04 0.999903 -0.20875 0.0773792 -0 -1.57963e-07 0 0 0 0 0
3906 2 13 4.8 0 0 0 0 -0.00954793 -1.54808 0 0.04 0.999903 -0.204928 0.0773779 -0 -4.04731e-07 0 0 0 0 0
3587 2 13.2 4.4 0 0 0 0 0.00955339 -1.4113 0 0.04 0.903481 0.905547 0.337952 -0 8.27391e-07 0 0 0 0 0
3588 2 13.4 4.4 0 0 0 0 -0.00956062 -1.41131 0 0.04 0.903481 0.905546 0.337951 -0 -1.48586e-06 0 0 0 0 0
3747 2 13.2 4.6 0 0 0 0 0.00956226 -3.22127 0 0.04 0.992079 0.0962298 0.31914 -0 9.23175e-07 0 0 0 0 0
3748 2 13.4 4.6 0 0 0 0 -0.00956928 -3.22125 0 0.04 0.992079 0.0962256 0.319136 -0 -5.34067e-07 0 0 0 0 0
3907 2 13.2 4.8 0 0 0 0 0.0095577 -1.54809 0 0.04 0.999903 -0.204926 0.0773806 -0 1.33891e-07 0 0 0 0 0
3908 2 13.4 4.8 0 0 0 0 -0.00956878 -1.54808 0 0.04 0.999903 -0.204928 0.0773794 -0 1.0375e-06 0 0 0 0 0
3589 2 13.6 4.4 0 0 0 0 0.00955219 -1.41131 0 0.04 0.903481 0.905548 0.337951 -0 2.19337e-07 0 0 0 0 0
3590 2 13.8 4.4 0 0 0 0 -3.08933e-06 -1.4113 0 0.04 0.903481 0.901722 0.337952 -0 -4.53361e-07 0 0 0 0 0
3591 2 14 4.4 0 0 0 0 -0.00955285 -1.41131 0 0.04 0.903481 0.905546 0.33795 -0 -1.14893e-07 0 0 0 0 0
3749 2 13.6 4.6 0 0 0 0 0.00956364 -3.22126 0 0.04 0.992079 0.0962267 0.319137 -0 1.17087e-06 0 0 0 0 0
3750 2 13.8 4.6 0 0 0 0 1.59741e-05 -3.22126 0 0.04 0.992079 0.0924035 0.319139 -0 4.72198e-07 0 0 0 0 0
3751 2 14 4.6 0 0 0 0 -0.00956126 -3.22127 0 0.04 0.992079 0.0962271 0.319139 -0 2.72214e-07 0 0 0 0 0
3909 2 13.6 4.8 0 0 0 0 0.00956456 -1.54808 0 0.04 0.999903 -0.204928 0.0773786 -0 -1.02166e-07 0 0 0 0 0
3910 2 13.8 4.8 0 0 0 0 7.41737e-07 -1.54808 0 0.04 0.999903 -0.208749 0.0773769 -0 6.54537e-07 0 0 0 0 0
3911 2 14 4.8 0 0 0 0 -0.00956387 -1.54808 0 0.04 0.999903 -0.20493 0.0773786 -0 5.44329e-07 0 0 0 0 0
3592 2 14.2 4.4 0 0 0 0 0.00956953 -1.41132 0 0.04 0.903481 0.905546 0.337951 -0 2.95376e-07 0 0 0 0 0
3593 2 14.4 4.4 0 0 0 0 -0.00956124 -1.4113 0 0.04 0.903481 0.905546 0.337952 -0 9.6173e-07 0 0 0 0 0
3752 2 14.2 4.6 0 0 0 0 0.00955012 -3.22125 0 0.04 0.992079 0.0962274 0.319137 -0 -3.85531e-07 0 0 0 0 0
3753 2 14.4 4.6 0 0 0 0 -0.00955589 -3.22127 0 0.04 0.992079 0.0962275 0.319139 -0 3.7757e-07 0 0 0 0 0
3912 2 14.2 4.8 0 0 0 0 0.00955185 -1.54808 0 0.04 0.999903 -0.204927 0.0773791 -0 9.01197e-08 0 0 0 0 0
3913 2 14.4 4.8 0 0 0 0 -0.00956063 -1.54808 0 0.04 0.999903 -0.204928 0.0773791 -0 -4.67881e-07 0 0 0 0 0
3594 2 14.6 4.4 0 0 0 0 0.00954824 -1.41131 0 0.04 0.903481 0.905546 0.337951 -0 1.0849e-06 0 0 0 0 0
3595 2 14.8 4.4 0 0 0 0 -7.85925e-06 -1.41133 0 0.04 0.903481 0.901724 0.33795 -0 6.79924e-07 0 0 0 0 0
3596 2 15 4.4 0 0 0 0 -0.00955479 -1.41131 0 0.04 0.903481 0.905548 0.337953 -0 1.31978e-06 0 0 0 0 0
3754 2 14.6 4.6 0 0 0 0 0.00954988 -3.22127 0 0.04 0.992079 0.096227 0.319139 -0 1.19809e-06 0 0 0 0 0
3755 2 14.8 4.6 0 0 0 0 5.0983e-06 -3.22126 0 0.04 0.992079 0.0924021 0.319138 -0 -2.55303e-07 0 0 0 0 0
3756 2 15 4.6 0 0 0 0 -0.00956978 -3.22126 0 0.04 0.992079 0.0962281 0.319138 -0 -2.72061e-07 0 0 0 0 0
3914 2 14.6 4.8 0 0 0 0 0.00956936 -1.54808 0 0.04 0.999903 -0.204926 0.0773815 -0 -4.49566e-07 0 0 0 0 0
3915 2 14.8 4.8 0 0 0 0 3.58381e-06 -1.54808 0 0.04 0.999903 -0.208753 0.077378 -0 3.18695e-07 0 0 0 0 0
3916 2 15 4.8 0 0 0 0 -0.00955997 -1.54807 0 0.04 0.999903 -0.204927 0.0773797 -0 -7.89923e-07 0 0 0 0 0
3597 2 15.2 4.4 0 0 0 0 0.00955464 -1.41132 0 0.04 0.903481 0.905547 0.337953 -0 -9.79954e-07 0 0 0 0 0
3598 2 15.4 4.4 0 0 0 0 2.64276e-06 -1.4113 0 0.04 0.903481 0.90937 0.337951 -0 6.9134e-07 0 0 0 0 0
3757 2 15.2 4.6 0 0 0 0 0.00955395 -3.22128 0 0.04 0.992079 0.0962255 0.319137 -0 8.67626e-09 0 0 0 0 0
3758 2 15.4 4.6 0 0 0 0 2.7412e-06 -3.22128 0 0.04 0.992079 0.100053 0.319141 -0 -3.05776e-07 0 0 0 0 0
3917 2 15.2 4.8 0 0 0 0 0.00954894 -1.54808 0 0.04 0.999903 -0.204925 0.0773796 -0 -9.54457e-07 0 0 0 0 0
3918 2 15.4 4.8 0 0 0 0 -6.58684e-06 -1.54806 0 0.04 0.999903 -0.201106 0.0773786 -0 -7.42344e-07 0 0 0 0 0
3599 2 15.6 4.4 0 0 0 0 -1.31942e-05 -1.41131 0 0.04 0.903481 0.901722 0.337951 -0 -1.28598e-07 0 0 0 0 0
3600 2 15.8 4.4 0 0 0 0 1.68896e-05 -1.41132 0 0.04 0.903481 0.901722 0.337953 -0 -8.74919e-07 0 0 0 0 0
3759 2 15.6 4.6 0 0 0 0 -2.99596e-06 -3.22126 0 0.04 0.992079 0.0924036 0.319139 -0 -9.95567e-07 0 0 0 0 0
3760 2 15.8 4.6 0 0 0 0 -2.4937e-07 -3.22127 0 0.04 0.992079 0.0924038 0.319138 -0 8.92396e-07 0 0 0 0 0
3919 2 15.6 4.8 0 0 0 0 8.07612e-06 -1.54808 0 0.04 0.999903 -0.208751 0.0773791 -0 3.52403e-07 0 0 0 0 0
3920 2 15.8 4.8 0 0 0 0 -4.56258e-07 -1.54808 0 0.04 0.999903 -0.208751 0.0773784 -0 3.40781e-07 0 0 0 0 0
3601 2 16 4.4 0 0 0 0 -0.00957439 -1.41131 0 0.04 0.903481 0.905547 0.337952 -0 3.42263e-07 0 0 0 0 0
3602 2 16.2 4.4 0 0 0 0 -0.00956122 -1.41133 0 0.04 0.903481 0.905546 0.337952 -0 -1.6526e-08 0 0 0 0 0
3603 2 16.4 4.4 0 0 0 0 0.00957036 -1.41131 0 0.04 0.903481 0.905544 0.337952 -0 -5.52998e-07 0 0 0 0 0
3761 2 16 4.6 0 0 0 0 -0.00956376 -3.22128 0 0.04 0.992079 0.096225 0.319137 -0 -1.43302e-07 0 0 0 0 0
3762 2 16.2 4.6 0 0 0 0 -0.00956117 -3.22126 0 0.04 0.992079 0.0962274 0.319138 -0 2.91329e-07 0 0 0 0 0
3763 2 16.4 4.6 0 0 0 0 0.00955694 -3.22127 0 0.04 0.992079 0.0962277 0.319139 -0 -3.55699e-08 0 0 0 0 0
3921 2 16 4.8 0 0 0 0 -0.00955228 -1.54808 0 0.04 0.999903 -0.20493 0.0773769 -0 -5.67689e-07 0 0 0 0 0
3922 2 16.2 4.8 0 0 0 0 -0.00956261 -1.54808 0 0.04 0.999903 -0.204929 0.0773802 -0 -1.23048e-06 0 0 0 0 0
3923 2 16.4 4.8 0 0 0 0 0.00956907 -1.54808 0 0.04 0.999903 -0.204927 0.077378 -0 -7.59929e-07 0 0 0 0 0
3604 2 16.6 4.4 0 0 0 0 -4.22555e-06 -1.41132 0 0.04 0.903481 0.901724 0.337952 -0 -6.92434e-07 0 0 0 0 0
3605 2 16.8 4.4 0 0 0 0 1.31742e-06 -1.41131 0 0.04 0.903481 0.901722 0.337953 -0 6.79672e-07 0 0 0 0 0
3764 2 16.6 4.6 0 0 0 0 -1.67078e-06 -3.22127 0 0.04 0.992079 0.0924026 0.319138 -0 4.37529e-07 0 0 0 0 0
3765 2 16.8 4.6 0 0 0 0 -1.81033e-06 -3.22127 0 0.04 0.992079 0.0924055 0.31914 -0 -9.81267e-08 0 0 0 0 0
3924 2 16.6 4.8 0 0 0 0 3.2636e-06 -1.54808 0 0.04 0.999903 -0.20875 0.077379 -0 -1.08897e-08 0 0 0 0 0
3925 2 16.8 4.8 0 0 0 0 -1.09958e-06 -1.54807 0 0.04 0.999903 -0.208751 0.0773783 -0 -5.29961e-07 0 0 0 0 0
3606 2 17 4.4 0 0 0 0 -3.03786e-06 -1.41132 0 0.04 0.903481 0.901724 0.337952 -0 3.65781e-08 0 0 0 0 0
3607 2 17.2 4.4 0 0 0 0 -0.00956208 -1.41132 0 0.04 0.903481 0.905547 0.33795 -0 -1.50263e-07 0 0 0 0 0
3608 2 17.4 4.4 0 0 0 0 0.00957127 -1.41131 0 0.04 0.903481 0.905547 0.33795 -0 1.33914e-06 0 0 0 0 0
3766 2 17 4.6 0 0 0 0 4.86671e-06 -3.22127 0 0.04 0.992079 0.0924055 0.319139 -0 -1.43623e-07 0 0 0 0 0
3767 2 17.2 4.6 0 0 0 0 -0.00956374 -3.22126 0 0.04 0.992079 0.0962266 0.319138 -0 5.36395e-07 0 0 0 0 0
3768 2 17.4 4.6 0 0 0 0 0.00956012 -3.22125 0 0.04 0.992079 0.0962268 0.319139 -0 -7.00352e-08 0 0 0 0 0
3926 2 17 4.8 0 0 0 0 3.19011e-06 -1.54808 0 0.04 0.999903 -0.208752 0.0773768 -0 5.75427e-08 0 0 0 0 0
3927 2 17.2 4.8 0 0 0 0 -0.0095477 -1.54809 0 0.04 0.999903 -0.204927 0.0773787 -0 2.64746e-09 0 0 0 0 0
3928 2 17.4 4.8 0 0 0 0 0.00954701 -1.54809 0 0.04 0.999903 -0.204925 0.0773781 -0 2.89376e-07 0 0 0 0 0
3609 2 17.6 4.4 0 0 0 0 -8.89631e-06 -1.41132 0 0.04 0.903481 0.901724 0.337952 -0 4.10822e-07 0 0 0 0 0
3610 2 17.8 4.4 0 0 0 0 9.65196e-06 -1.41132 0 0.04 0.903481 0.901724 0.337952 -0 -1.72545e-07 0 0 0 0 0
3769 2 17.6 4.6 0 0 0 0 -7.78792e-06 -3.22127 0 0.04 0.992079 0.0924027 0.319139 -0 -3.54407e-07 0 0 0 0 0
3770 2 17.8 4.6 0 0 0 0 -1.46394e-06 -3.22126 0 0.04 0.992079 0.0924045 0.319138 -0 -5.2531e-07 0 0 0 0 0
3929 2 17.6 4.8 0 0 0 0 -6.91447e-06 -1.54808 0 0.04 0.999903 -0.208752 0.0773783 -0 -8.39149e-07 0 0 0 0 0
3930 2 17.8 4.8 0 0 0 0 6.64591e-06 -1.54807 0 0.04 0.999903 -0.20875 0.0773798 -0 -2.67062e-07 0 0 0 0 0
3611 2 18 4.4 0 0 0 0 -8.9956e-07 -1.41132 0 0.04 0.903481 0.901725 0.337952 -0 3.63132e-07 0 0 0 0 0
3612 2 18.2 4.4 0 0 0 0 -0.00956341 -1.41131 0 0.04 0.903481 0.905546 0.33795 -0 1.10023e-06 0 0 0 0 0
3613 2 18.4 4.4 0 0 0 0 -2.16991e-06 -1.41132 0 0.04 0.903481 0.901724 0.337952 -0 1.44281e-06 0 0 0 0 0
3771 2 18 4.6 0 0 0 0 -1.90035e-06 -3.22126 0 0.04 0.992079 0.0924035 0.319135 -0 5.41855e-07 0 0 0 0 0
3772 2 18.2 4.6 0 0 0 0 -0.00956561 -3.22126 0 0.04 0.992079 0.0962284 0.319139 -0 1.28067e-06 0 0 0 0 0
3773 2 18.4 4.6 0 0 0 0 -1.03566e-05 -3.22126 0 0.04 0.992079 0.0924046 0.319138 -0 5.54302e-07 0 0 0 0 0
3931 2 18 4.8 0 0 0 0 6.93694e-07 -1.54808 0 0.04 0.999903 -0.208751 0.0773798 -0 7.48116e-07 0 0 0 0 0
3932 2 18.2 4.8 0 0 0 0 -0.00955732 -1.54808 0 0.04 0.999903 -0.204927 0.077378 -0 3.33157e-07 0 0 0 0 0
3933 2 18.4 4.8 0 0 0 0 -6.77789e-07 -1.54809 0 0.04 0.999903 -0.208751 0.0773791 -0 6.56575e-07 0 0 0 0 0
3614 2 18.6 4.4 0 0 0 0 -4.3166e-06 -1.41132 0 0.04 0.903481 0.901723 0.337952 -0 -1.34466e-08 0 0 0 0 0
3615 2 18.8 4.4 0 0 0 0 4.02706e-06 -1.41132 0 0.04 0.903481 0.901724 0.337951 -0 -5.1458e-07 0 0 0 0 0
3774 2 18.6 4.6 0 0 0 0 -7.01395e-06 -3.22126 0 0.04 0.992079 0.0924049 0.319136 -0 6.68236e-07 0 0 0 0 0
3775 2 18.8 4.6 0 0 0 0 5.75708e-06 -3.22127 0 0.04 0.992079 0.0924032 0.319139 -0 4.67905e-07 0 0 0 0 0
3934 2 18.6 4.8 0 0 0 0 -5.22607e-06 -1.54806 0 0.04 0.999903 -0.208751 0.077379 -0 7.35677e-07 0 0 0 0 0
3935 2 18.8 4.8 0 0 0 0 -1.32714e-06 -1.54808 0 0.04 0.999903 -0.208752 0.0773781 -0 -4.41103e-07 0 0 0 0 0
3616 2 19 4.4 0 0 0 0 5.5218e-06 -1.41132 0 0.04 0.903481 0.901721 0.337952 -0 8.49465e-07 0 0 0 0 0
3617 2 19.2 4.4 0 0 0 0 0.00955749 -1.41131 0 0.04 0.903481 0.905546 0.337951 -0 -6.81829e-07 0 0 0 0 0
3776 2 19 4.6 0 0 0 0 -1.36178e-06 -3.22126 0 0.04 0.992079 0.0924022 0.319137 -0 -9.23931e-10 0 0 0 0 0
3777 2 19.2 4.6 0 0 0 0 0.00955677 -3.22127 0 0.04 0.992079 0.096227 0.319138 -0 -3.02038e-08 0 0 0 0 0
3936 2 19 4.8 0 0 0 0 1.14451e-05 -1.54808 0 0.04 0.999903 -0.208751 0.07738 -0 7.77299e-07 0 0 0 0 0
3937 2 19.2 4.8 0 0 0 0 0.00955166 -1.54808 0 0.04 0.999903 -0.204926 0.0773793 -0 -5.73049e-07 0 0 0 0 0
3618 2 19.4 4.4 0 0 0 0 1.32909e-06 -1.41132 0 0.04 0.903481 0.901722 0.337951 -0 6.40691e-08 0 0 0 0 0
3619 2 19.6 4.4 0 0 0 0 -1.05495e-05 -1.41132 0 0.04 0.903481 0.901721 0.337951 -0 -1.38435e-06 0 0 0 0 0
3620 2 19.8 4.4 0 0 0 0 7.96682e-06 -1.41131 0 0.04 0.903481 0.901724 0.337953 -0 1.72769e-07 0 0 0 0 0
3778 2 19.4 4.6 0 0 0 0 -3.29795e-07 -3.22126 0 0.04 0.992079 0.0924054 0.319138 -0 5.75345e-07 0 0 0 0 0
3779 2 19.6 4.6 0 0 0 0 1.37291e-05 -3.22127 0 0.04 0.992079 0.0924037 0.319138 -0 1.00356e-06 0 0 0 0 0
3780 2 19.8 4.6 0 0 0 0 -8.2288e-06 -3.22126 0 0.04 0.992079 0.0924017 0.319136 -0 -4.5479e-07 0 0 0 0 0
3938 2 19.4 4.8 0 0 0 0 1.32948e-05 -1.54807 0 0.04 0.999903 -0.208751 0.0773774 -0 -1.35917e-06 0 0 0 0 0
3939 2 19.6 4.8 0 0 0 0 -6.67903e-06 -1.54807 0 0.04 0.999903 -0.208749 0.0773792 -0 8.03183e-08 0 0 0 0 0
3940 2 19.8 4.8 0 0 0 0 -1.63825e-05 -1.54808 0 0.04 0.999903 -0.208751 0.0773778 -0 -6.14863e-07 0 0 0 0 0
3621 2 20 4.4 0 0 0 0 -0.0095557 -1.41132 0 0.04 0.903481 0.905546 0.33795 -0 -6.20774e-07 0 0 0 0 0
3622 2 20.2 4.4 0 0 0 0 0.00955633 -1.41132 0 0.04 0.903481 0.905546 0.337951 -0 -6.16181e-07 0 0 0 0 0
3781 2 20 4.6 0 0 0 0 -0.00954996 -3.22125 0 0.04 0.992079 0.0962283 0.319139 -0 -6.20161e-07 0 0 0 0 0