ITEM: TIMESTEP
0
ITEM: NUMBER OF ATOMS
2880
ITEM: BOX BOUNDS pp pp pp
0.0000000000000000e+00 9.6000000000000014e+00
0.0000000000000000e+00 1.2000000000000000e+01
0.0000000000000000e+00 2.0000000000000001e-01
ITEM: ATOMS id type x y z vx vy vz fx fy fz mass c_density c_peratom[1] c_peratom[2] c_peratom[3] c_peratom[4]
1 3 0 0 0 0 0 0 0.0119813 -0.000467302 0 0.04 0.999903 -0.000419798 -0.000230998 -0 -1.03228e-06
2 3 0.2 0 0 0 0 0 0.01199 -0.00048821 0 0.04 0.999903 -0.000421096 -0.000231305 -0 -8.74363e-07
3 3 0.4 0 0 0 0 0 0.0119886 -0.000482142 0 0.04 0.999903 -0.000421151 -0.000230354 -0 2.04147e-06
49 3 0 0.2 0 0 0 0 0.0120029 -0.000491772 0 0.04 0.999903 -0.000419868 -0.000232372 -0 1.71741e-06
50 3 0.2 0.2 0 0 0 0 0.0119913 -0.000480598 0 0.04 0.999903 -0.000421351 -0.000227008 -0 -6.36285e-07
51 3 0.4 0.2 0 0 0 0 0.0120095 -0.000483949 0 0.04 0.999903 -0.000422897 -0.000226946 -0 4.64839e-07
97 3 0 0.4 0 0 0 0 0.0120008 -0.000452811 0 0.04 0.999903 -0.000420486 -0.000231848 -0 -1.03568e-06
98 3 0.2 0.4 0 0 0 0 0.0119849 -0.000471746 0 0.04 0.999903 -0.000423636 -0.000232552 -0 -3.19508e-07
99 3 0.4 0.4 0 0 0 0 0.0119888 -0.000466056 0 0.04 0.999903 -0.00041882 -0.000229267 -0 -2.05063e-06
4 3 0.6 0 0 0 0 0 0.012007 -0.000489025 0 0.04 0.999903 -0.000420186 -0.000226986 -0 8.0549e-07
5 3 0.8 0 0 0 0 0 0.0120081 -0.00048162 0 0.04 0.999903 -0.000418856 -0.000227912 -0 1.43291e-06
52 3 0.6 0.2 0 0 0 0 0.0120127 -0.000456048 0 0.04 0.999903 -0.000425706 -0.000227444 -0 -7.50338e-07
53 3 0.8 0.2 0 0 0 0 0.0119964 -0.000475457 0 0.04 0.999903 -0.000424207 -0.000228474 -0 9.13438e-08
100 3 0.6 0.4 0 0 0 0 0.0120058 -0.000496709 0 0.04 0.999903 -0.000421166 -0.000228 -0 -1.18018e-06
101 3 0.8 0.4 0 0 0 0 0.0120167 -0.000469154 0 0.04 0.999903 -0.000414681 -0.000230322 -0 1.76334e-06
6 3 1 0 0 0 0 0 0.0120127 -0.000474576 0 0.04 0.999903 -0.000419629 -0.000231927 -0 -8.33683e-07
7 3 1.2 0 0 0 0 0 0.0124566 -0.000480537 0 0.04 0.999903 -0.000232955 -0.000230455 -0 -2.26353e-06
8 3 1.4 0 0 0 0 0 0.0119844 -0.000494598 0 0.04 0.999903 -0.000422203 -0.000225113 -0 1.34061e-06
54 3 1 0.2 0 0 0 0 0.0119896 -0.000472907 0 0.04 0.999903 -0.000421592 -0.000227684 -0 6.46138e-07
55 3 1.2 0.2 0 0 0 0 0.0124766 -0.000463541 0 0.04 0.999903 -0.0002269 -0.000230738 -0 2.99906e-06
56 3 1.4 0.2 0 0 0 0 0.012002 -0.000488798 0 0.04 0.999903 -0.000424488 -0.000232876 -0 -6.41448e-07
102 3 1 0.4 0 0 0 0 0.0120069 -0.000470139 0 0.04 0.999903 -0.000420219 -0.000227956 -0 2.64128e-06
103 3 1.2 0.4 0 0 0 0 0.0124725 -0.000490816 0 0.04 0.999903 -0.000233114 -0.000229515 -0 -5.98177e-07
104 3 1.4 0.4 0 0 0 0 0.0120108 -0.000472678 0 0.04 0.999903 -0.000418797 -0.000229475 -0 -2.32745e-06
9 3 1.6 0 0 0 0 0 0.0119847 -0.000484283 0 0.04 0.999903 -0.000417043 -0.000228173 -0 -3.87636e-07
10 3 1.8 0 0 0 0 0 0.0119982 -0.00047535 0 0.04 0.999903 -0.000425269 -0.000231472 -0 8.743e-07
57 3 1.6 0.2 0 0 0 0 0.012016 -0.000484555 0 0.04 0.999903 -0.000421528 -0.000228089 -0 -1.65292e-06
58 3 1.8 0.2 0 0 0 0 0.0119961 -0.00047151 0 0.04 0.999903 -0.000420889 -0.000229003 -0 -1.31032e-06
105 3 1.6 0.4 0 0 0 0 0.0119905 -0.00048425 0 0.04 0.999903 -0.00042162 -0.000229445 -0 -1.44349e-06
106 3 1.8 0.4 0 0 0 0 0.0120155 -0.000470444 0 0.04 0.999903 -0.000418888 -0.000228013 -0 -4.78941e-07
11 3 2 0 0 0 0 0 0.0115313 -0.000459971 0 0.04 0.999903 -0.00023068 -0.000224534 -0 -1.122e-07
12 3 2.2 0 0 0 0 0 0.0124973 -0.000480047 0 0.04 0.999903 -0.000228951 -0.000229412 -0 1.44523e-06
59 3 2 0.2 0 0 0 0 0.011521 -0.000481823 0 0.04 0.999903 -0.000226616 -0.00022875 -0 -5.75439e-07
60 3 2.2 0.2 0 0 0 0 0.0124983 -0.000491998 0 0.04 0.999903 -0.000234816 -0.000229928 -0 1.55312e-06
107 3 2 0.4 0 0 0 0 0.0114735 -0.000462907 0 0.04 0.999903 -0.000229539 -0.000227122 -0 7.78615e-07
108 3 2.2 0.4 0 0 0 0 0.0124592 -0.00047732 0 0.04 0.999903 -0.000226518 -0.000228739 -0 5.55045e-08
13 3 2.4 0 0 0 0 0 0.0124874 -0.000479237 0 0.04 0.999903 -0.000229275 -0.000231805 -0 -3.66258e-07
14 3 2.6 0 0 0 0 0 0.0119852 -0.000479695 0 0.04 0.999903 -0.000414129 -0.000227043 -0 1.81928e-06
15 3 2.8 0 0 0 0 0 0.0124724 -0.000454389 0 0.04 0.999903 -0.000229251 -0.000228645 -0 -2.48656e-06
61 3 2.4 0.2 0 0 0 0 0.0124653 -0.000489525 0 0.04 0.999903 -0.000226716 -0.000231867 -0 1.24399e-06
62 3 2.6 0.2 0 0 0 0 0.0119899 -0.000471525 0 0.04 0.999903 -0.000420685 -0.000229017 -0 -1.25548e-06
63 3 2.8 0.2 0 0 0 0 0.0124919 -0.000500717 0 0.04 0.999903 -0.000229961 -0.000230889 -0 -8.32047e-07
109 3 2.4 0.4 0 0 0 0 0.012478 -0.000477753 0 0.04 0.999903 -0.000232436 -0.000228804 -0 -3.31099e-06
110 3 2.6 0.4 0 0 0 0 0.0120323 -0.000481542 0 0.04 0.999903 -0.000415953 -0.000229811 -0 -1.11228e-06
111 3 2.8 0.4 0 0 0 0 0.0124809 -0.000481292 0 0.04 0.999903 -0.00022705 -0.000228404 -0 -2.25234e-06
16 3 3 0 0 0 0 0 0.0115235 -0.000444922 0 0.04 0.999903 -0.000230449 -0.000231025 -0 -9.68682e-07
17 3 3.2 0 0 0 0 0 0.0119992 -0.00048544 0 0.04 0.999903 -3.88441e-05 -0.000231806 -0 -4.21335e-07
64 3 3 0.2 0 0 0 0 0.0114852 -0.000510743 0 0.04 0.999903 -0.000228452 -0.000232052 -0 -3.68609e-07
65 3 3.2 0.2 0 0 0 0 0.012 -0.000480041 0 0.04 0.999903 -3.65196e-05 -0.000229118 -0 -1.65958e-06
112 3 3 0.4 0 0 0 0 0.0115095 -0.000461526 0 0.04 0.999903 -0.00022572 -0.000229245 -0 -1.75418e-06
113 3 3.2 0.4 0 0 0 0 0.0119936 -0.000470791 0 0.04 0.999903 -4.03689e-05 -0.000232616 -0 -3.2014e-08
18 3 3.4 0 0 0 0 0 0.0124827 -0.000475163 0 0.04 0.999903 -0.000230196 -0.000232232 -0 5.79655e-07
19 3 3.6 0 0 0 0 0 0.011515 -0.000486784 0 0.04 0.999903 -0.000225263 -0.000229073 -0 1.2676e-06
20 3 3.8 0 0 0 0 0 0.012019 -0.000525915 0 0.04 0.999903 -0.000416449 -0.000227859 -0 -1.42228e-06
66 3 3.4 0.2 0 0 0 0 0.0124594 -0.000475406 0 0.04 0.999903 -0.000226474 -0.000228158 -0 -1.1756e-06
67 3 3.6 0.2 0 0 0 0 0.0115267 -0.000464809 0 0.04 0.999903 -0.000228296 -0.000228104 -0 -7.48082e-07
68 3 3.8 0.2 0 0 0 0 0.0120088 -0.000478979 0 0.04 0.999903 -0.000422906 -0.000230082 -0 -1.19774e-06
114 3 3.4 0.4 0 0 0 0 0.0124842 -0.000454711 0 0.04 0.999903 -0.000230723 -0.000230044 -0 -1.10021e-06
115 3 3.6 0.4 0 0 0 0 0.0115046 -0.00045046 0 0.04 0.999903 -0.000229969 -0.000228455 -0 -3.42801e-06
116 3 3.8 0.4 0 0 0 0 0.0120062 -0.000472138 0 0.04 0.999903 -0.000419945 -0.000232134 -0 1.27571e-06
21 3 4 0 0 0 0 0 0.0115071 -0.000510177 0 0.04 0.999903 -0.000227395 -0.00023188 -0 -1.22188e-06
22 3 4.2 0 0 0 0 0 0.0119802 -0.000468921 0 0.04 0.999903 -3.71904e-05 -0.000230043 -0 -2.90303e-06
69 3 4 0.2 0 0 0 0 0.0115187 -0.000486277 0 0.04 0.999903 -0.000231444 -0.000229596 -0 1.32927e-06
70 3 4.2 0.2 0 0 0 0 0.0120181 -0.000493725 0 0.04 0.999903 -3.9454e-05 -0.000230508 -0 6.60804e-07
117 3 4 0.4 0 0 0 0 0.0115157 -0.000452021 0 0.04 0.999903 -0.000226278 -0.000230728 -0 -2.77864e-06
118 3 4.2 0.4 0 0 0 0 0.011998 -0.000482029 0 0.04 0.999903 -3.45065e-05 -0.000235065 -0 -1.72372e-06
23 3 4.4 0 0 0 0 0 0.0124549 -0.000479318 0 0.04 0.999903 -0.000231779 -0.000233054 -0 -1.55158e-06
24 3 4.6 0 0 0 0 0 0.0124934 -0.000447452 0 0.04 0.999903 -0.000231007 -0.000229324 -0 -5.04077e-07
71 3 4.4 0.2 0 0 0 0 0.0124691 -0.000475208 0 0.04 0.999903 -0.000230023 -0.000231836 -0 -3.61551e-07
72 3 4.6 0.2 0 0 0 0 0.0124759 -0.000461633 0 0.04 0.999903 -0.000226819 -0.000226494 -0 -1.99097e-06
119 3 4.4 0.4 0 0 0 0 0.0124578 -0.000444567 0 0.04 0.999903 -0.000225639 -0.00022598 -0 -2.30818e-06
120 3 4.6 0.4 0 0 0 0 0.0124609 -0.000494168 0 0.04 0.999903 -0.000230454 -0.00022842 -0 -1.65772e-06
25 3 4.8 0 0 0 0 0 0.0124746 -0.000484155 0 0.04 0.999903 -0.000232686 -0.000231138 -0 -1.56745e-07
26 3 5 0 0 0 0 0 0.0115229 -0.000494106 0 0.04 0.999903 -0.000231698 -0.000229348 -0 -1.52482e-06
27 3 5.2 0 0 0 0 0 0.0120111 -0.000453252 0 0.04 0.999903 -3.71044e-05 -0.000232399 -0 -1.89576e-06
73 3 4.8 0.2 0 0 0 0 0.0124842 -0.000484854 0 0.04 0.999903 -0.000229504 -0.000226495 -0 -1.16996e-06
74 3 5 0.2 0 0 0 0 0.0115116 -0.000472904 0 0.04 0.999903 -0.000232542 -0.000227065 -0 2.13142e-06
75 3 5.2 0.2 0 0 0 0 0.0120118 -0.000489391 0 0.04 0.999903 -3.96546e-05 -0.000232421 -0 1.30378e-06
121 3 4.8 0.4 0 0 0 0 0.0124858 -0.000483416 0 0.04 0.999903 -0.000230607 -0.00022746 -0 1.09944e-06
122 3 5 0.4 0 0 0 0 0.0115068 -0.000492628 0 0.04 0.999903 -0.000229688 -0.000229484 -0 -1.0189e-06
123 3 5.2 0.4 0 0 0 0 0.0119819 -0.000468013 0 0.04 0.999903 -3.93297e-05 -0.000232209 -0 -7.50061e-07
28 3 5.4 0 0 0 0 0 0.0119874 -0.000472079 0 0.04 0.999903 -4.41074e-05 -0.000227819 -0 -8.49626e-07
29 3 5.6 0 0 0 0 0 0.012008 -0.000478723 0 0.04 0.999903 -4.44301e-05 -0.00022509 -0 1.19516e-06
76 3 5.4 0.2 0 0 0 0 0.0120024 -0.000466408 0 0.04 0.999903 -3.9941e-05 -0.000231039 -0 7.64054e-07
77 3 5.6 0.2 0 0 0 0 0.0120007 -0.000471556 0 0.04 0.999903 -3.79404e-05 -0.000231244 -0 9.13049e-07
124 3 5.4 0.4 0 0 0 0 0.0120151 -0.000467533 0 0.04 0.999903 -4.21173e-05 -0.000230512 -0 -2.73039e-07
125 3 5.6 0.4 0 0 0 0 0.0120196 -0.000486646 0 0.04 0.999903 -3.57077e-05 -0.000228075 -0 -9.70018e-07
30 3 5.8 0 0 0 0 0 0.0124814 -0.000507803 0 0.04 0.999903 -0.000231337 -0.000233019 -0 -9.31051e-07
31 3 6 0 0 0 0 0 0.0115156 -0.000502513 0 0.04 0.999903 -0.000233514 -0.00023212 -0 -6.68369e-07
32 3 6.2 0 0 0 0 0 0.0120329 -0.00047667 0 0.04 0.999903 -3.91259e-05 -0.000227049 -0 -3.28458e-07
78 3 5.8 0.2 0 0 0 0 0.0124516 -0.000480555 0 0.04 0.999903 -0.000233232 -0.000234851 -0 -6.99239e-07
79 3 6 0.2 0 0 0 0 0.01154 -0.000451791 0 0.04 0.999903 -0.000232361 -0.000230404 -0 -1.52236e-06
80 3 6.2 0.2 0 0 0 0 0.0120028 -0.00046848 0 0.04 0.999903 -3.9991e-05 -0.000232281 -0 2.43481e-06
126 3 5.8 0.4 0 0 0 0 0.012472 -0.000490962 0 0.04 0.999903 -0.000227053 -0.00022973 -0 9.1477e-07
127 3 6 0.4 0 0 0 0 0.0115408 -0.000497849 0 0.04 0.999903 -0.000233107 -0.000230193 -0 1.80246e-06
128 3 6.2 0.4 0 0 0 0 0.0119982 -0.000481179 0 0.04 0.999903 -3.59279e-05 -0.000230468 -0 6.69302e-07
33 3 6.4 0 0 0 0 0 0.0120147 -0.000500443 0 0.04 0.999903 -4.02586e-05 -0.000227085 -0 -6.02128e-07
34 3 6.6 0 0 0 0 0 0.0120068 -0.000492729 0 0.04 0.999903 -4.04992e-05 -0.00023205 -0 -3.55715e-07
81 3 6.4 0.2 0 0 0 0 0.0120005 -0.000442769 0 0.04 0.999903 -3.71607e-05 -0.000227119 -0 -4.105e-08
82 3 6.6 0.2 0 0 0 0 0.011982 -0.000484065 0 0.04 0.999903 -3.46079e-05 -0.000228233 -0 1.2325e-06
129 3 6.4 0.4 0 0 0 0 0.0120051 -0.000488154 0 0.04 0.999903 -4.04672e-05 -0.000227713 -0 -1.00191e-06
130 3 6.6 0.4 0 0 0 0 0.0120055 -0.000480431 0 0.04 0.999903 -4.12369e-05 -0.000227352 -0 4.89635e-07
35 3 6.8 0 0 0 0 0 0.0125049 -0.000472199 0 0.04 0.999903 -0.000225487 -0.000229317 -0 -5.19355e-07
36 3 7 0 0 0 0 0 0.0115214 -0.000461618 0 0.04 0.999903 -0.000228737 -0.00022795 -0 3.5829e-07
37 3 7.2 0 0 0 0 0 0.0119666 -0.000441682 0 0.04 0.999903 -3.47362e-05 -0.000229566 -0 2.66901e-06
83 3 6.8 0.2 0 0 0 0 0.0124759 -0.000503761 0 0.04 0.999903 -0.000227925 -0.00023353 -0 -6.47655e-07
84 3 7 0.2 0 0 0 0 0.0115429 -0.000501071 0 0.04 0.999903 -0.000230722 -0.000229262 -0 -1.74852e-06
85 3 7.2 0.2 0 0 0 0 0.0119731 -0.000459066 0 0.04 0.999903 -3.47137e-05 -0.000230675 -0 6.484e-07
131 3 6.8 0.4 0 0 0 0 0.0124851 -0.000464262 0 0.04 0.999903 -0.000230065 -0.000230718 -0 -1.45616e-06
132 3 7 0.4 0 0 0 0 0.0115438 -0.000470004 0 0.04 0.999903 -0.000227582 -0.0002297 -0 8.49669e-07
133 3 7.2 0.4 0 0 0 0 0.012007 -0.000474102 0 0.04 0.999903 -3.71814e-05 -0.000227609 -0 3.05647e-07
38 3 7.4 0 0 0 0 0 0.0115636 -0.000506715 0 0.04 0.999903 -0.000227733 -0.000234079 -0 -6.27201e-07
39 3 7.6 0 0 0 0 0 0.0120011 -0.000483774 0 0.04 0.999903 -3.65718e-05 -0.000228545 -0 -1.71553e-06
86 3 7.4 0.2 0 0 0 0 0.0115237 -0.000467816 0 0.04 0.999903 -0.000227309 -0.000235277 -0 7.2621e-07
87 3 7.6 0.2 0 0 0 0 0.0120039 -0.000470275 0 0.04 0.999903 -3.90029e-05 -0.000227908 -0 -2.07816e-06
134 3 7.4 0.4 0 0 0 0 0.0115454 -0.000492939 0 0.04 0.999903 -0.000229009 -0.000227825 -0 9.4069e-07
135 3 7.6 0.4 0 0 0 0 0.0120129 -0.000476282 0 0.04 0.999903 -3.83854e-05 -0.000232646 -0 1.32266e-06
40 3 7.8 0 0 0 0 0 0.0124823 -0.000478181 0 0.04 0.999903 -0.000225783 -0.000230616 -0 2.69756e-07
41 3 8 0 0 0 0 0 0.011528 -0.000473784 0 0.04 0.999903 -0.000226096 -0.000228305 -0 -1.25482e-07
88 3 7.8 0.2 0 0 0 0 0.0124707 -0.000470411 0 0.04 0.999903 -0.000227435 -0.000226539 -0 2.15409e-06
89 3 8 0.2 0 0 0 0 0.0114945 -0.000476869 0 0.04 0.999903 -0.00023081 -0.000231376 -0 6.12301e-07
136 3 7.8 0.4 0 0 0 0 0.0124526 -0.000464275 0 0.04 0.999903 -0.000227351 -0.000226159 -0 -3.75493e-07
137 3 8 0.4 0 0 0 0 0.0115322 -0.000483178 0 0.04 0.999903 -0.000229041 -0.000228249 -0 -1.27994e-06
42 3 8.2 0 0 0 0 0 0.0124742 -0.000464281 0 0.04 0.999903 -0.000226279 -0.000228288 -0 1.35437e-06
43 3 8.4 0 0 0 0 0 0.0115232 -0.000449116 0 0.04 0.999903 -0.000228895 -0.000226235 -0 -4.62756e-07
44 3 8.6 0 0 0 0 0 0.0115292 -0.000468951 0 0.04 0.999903 -0.00022747 -0.000224762 -0 1.77895e-06
90 3 8.2 0.2 0 0 0 0 0.0124652 -0.000469093 0 0.04 0.999903 -0.000230696 -0.000228531 -0 -1.70071e-06
91 3 8.4 0.2 0 0 0 0 0.0115023 -0.000484425 0 0.04 0.999903 -0.000233308 -0.000230217 -0 1.00418e-06
92 3 8.6 0.2 0 0 0 0 0.0115511 -0.000485895 0 0.04 0.999903 -0.000228447 -0.000225067 -0 2.31742e-07
138 3 8.2 0.4 0 0 0 0 0.0124779 -0.000466537 0 0.04 0.999903 -0.000228614 -0.000230752 -0 2.1039e-07
139 3 8.4 0.4 0 0 0 0 0.0115134 -0.000492062 0 0.04 0.999903 -0.000230448 -0.000229347 -0 -1.44068e-06
140 3 8.6 0.4 0 0 0 0 0.0115346 -0.000475918 0 0.04 0.999903 -0.000225069 -0.000225976 -0 -4.56938e-07
45 3 8.8 0 0 0 0 0 0.0120257 -0.000482566 0 0.04 0.999903 -0.000416815 -0.000228272 -0 1.8986e-06
46 3 9 0 0 0 0 0 0.0115091 -0.000465837 0 0.04 0.999903 -0.000227386 -0.000231137 -0 -1.39599e-06
93 3 8.8 0.2 0 0 0 0 0.0120076 -0.00047502 0 0.04 0.999903 -0.000420429 -0.00023228 -0 5.48067e-07
94 3 9 0.2 0 0 0 0 0.0114992 -0.00046848 0 0.04 0.999903 -0.000224612 -0.000227 -0 3.45364e-06
141 3 8.8 0.4 0 0 0 0 0.0120087 -0.000481686 0 0.04 0.999903 -0.000419455 -0.000224645 -0 -2.83405e-06
142 3 9 0.4 0 0 0 0 0.0115248 -0.000498588 0 0.04 0.999903 -0.000225598 -0.000228403 -0 -1.03425e-06
47 3 9.2 0 0 0 0 0 0.0119722 -0.000475482 0 0.04 0.999903 -0.000419255 -0.000228914 -0 -1.72587e-06
48 3 9.4 0 0 0 0 0 0.0120071 -0.000474082 0 0.04 0.999903 -0.000419682 -0.000228825 -0 1.5792e-07
95 3 9.2 0.2 0 0 0 0 0.0120307 -0.000484699 0 0.04 0.999903 -0.000415673 -0.000228254 -0 -1.64613e-06
96 3 9.4 0.2 0 0 0 0 0.0119928 -0.000464621 0 0.04 0.999903 -0.000417768 -0.000229192 -0 -2.85097e-06
143 3 9.2 0.4 0 0 0 0 0.0119654 -0.000467001 0 0.04 0.999903 -0.00042167 -0.000230161 -0 1.56141e-06
144 3 9.4 0.4 0 0 0 0 0.0120055 -0.000472453 0 0.04 0.999903 -0.000422814 -0.000227141 -0 1.8983e-06
145 3 0 0.6 0 0 0 0 0.012008 -0.000481032 0 0.04 0.999903 -0.000418626 -0.000232558 -0 -2.32843e-07
146 3 0.2 0.6 0 0 0 0 0.0120011 -0.000492131 0 0.04 0.999903 -0.000418281 -0.000229706 -0 5.57599e-07
147 3 0.4 0.6 0 0 0 0 0.012001 -0.000477121 0 0.04 0.999903 -0.000420192 -0.000228117 -0 3.79993e-08
193 3 0 0.8 0 0 0 0 0.0119804 1.00606e-05 0 0.04 0.999903 -0.00042066 -0.000422679 -0 -1.61259e-06
194 3 0.2 0.8 0 0 0 0 0.0119774 -9.83755e-06 0 0.04 0.999903 -0.00041989 -0.00041988 -0 -4.72257e-07
195 3 0.4 0.8 0 0 0 0 0.0120051 -2.65028e-05 0 0.04 0.999903 -0.00042002 -0.000417804 -0 -8.44637e-07
148 3 0.6 0.6 0 0 0 0 0.0120143 -0.000482154 0 0.04 0.999903 -0.000424073 -0.000229729 -0 -2.86018e-06
149 3 0.8 0.6 0 0 0 0 0.01201 -0.000459685 0 0.04 0.999903 -0.000419239 -0.000228227 -0 9.1186e-07
196 3 0.6 0.8 0 0 0 0 0.0119717 3.92693e-06 0 0.04 0.999903 -0.000421164 -0.000422024 -0 -7.58615e-07
197 3 0.8 0.8 0 0 0 0 0.0120183 1.15477e-05 0 0.04 0.999903 -0.000419083 -0.000420253 -0 1.68604e-06
150 3 1 0.6 0 0 0 0 0.0119847 -0.000494137 0 0.04 0.999903 -0.000413225 -0.000225156 -0 2.83584e-06
151 3 1.2 0.6 0 0 0 0 0.0124609 -0.000486948 0 0.04 0.999903 -0.000231225 -0.000229226 -0 -2.61172e-06
152 3 1.4 0.6 0 0 0 0 0.0119711 -0.000478165 0 0.04 0.999903 -0.000418721 -0.00022498 -0 -2.93743e-07
198 3 1 0.8 0 0 0 0 0.0119871 -1.40666e-05 0 0.04 0.999903 -0.000420833 -0.000415785 -0 -2.75176e-06
199 3 1.2 0.8 0 0 0 0 0.0124627 -1.50051e-06 0 0.04 0.999903 -0.000229941 -0.000421045 -0 -1.01082e-06
200 3 1.4 0.8 0 0 0 0 0.012011 -1.19464e-05 0 0.04 0.999903 -0.000418621 -0.000420888 -0 2.1923e-06
153 3 1.6 0.6 0 0 0 0 0.0119945 -0.000483959 0 0.04 0.999903 -0.000418561 -0.000231507 -0 -1.41613e-06
154 3 1.8 0.6 0 0 0 0 0.0120198 -0.000492535 0 0.04 0.999903 -0.000422698 -0.000226002 -0 -9.81657e-07
201 3 1.6 0.8 0 0 0 0 0.0120264 2.76904e-05 0 0.04 0.999903 -0.000422932 -0.000423354 -0 -2.38188e-06
202 3 1.8 0.8 0 0 0 0 0.01198 -2.66083e-05 0 0.04 0.999903 -0.000423731 -0.000427319 -0 -2.10284e-06
155 3 2 0.6 0 0 0 0 0.0115427 -0.00048623 0 0.04 0.999903 -0.000231207 -0.000232372 -0 1.15976e-06
156 3 2.2 0.6 0 0 0 0 0.0124999 -0.000474164 0 0.04 0.999903 -0.00022956 -0.000227293 -0 2.10576e-06
203 3 2 0.8 0 0 0 0 0.0115154 -1.42537e-05 0 0.04 0.999903 -0.0002298 -0.000424026 -0 -1.30928e-06
204 3 2.2 0.8 0 0 0 0 0.0124765 -2.15721e-05 0 0.04 0.999903 -0.000232927 -0.000422998 -0 -6.8396e-07
157 3 2.4 0.6 0 0 0 0 0.0124699 -0.000490573 0 0.04 0.999903 -0.000228711 -0.00022742 -0 -4.77791e-07
158 3 2.6 0.6 0 0 0 0 0.0120043 -0.000480351 0 0.04 0.999903 -0.000417971 -0.000227905 -0 -2.25783e-06
159 3 2.8 0.6 0 0 0 0 0.012516 -0.000457074 0 0.04 0.999903 -0.000230401 -0.000230674 -0 -1.66921e-07
205 3 2.4 0.8 0 0 0 0 0.0124737 -8.71013e-06 0 0.04 0.999903 -0.000230121 -0.0004221 -0 9.07294e-07
206 3 2.6 0.8 0 0 0 0 0.0119988 -1.99993e-05 0 0.04 0.999903 -0.000420225 -0.000417797 -0 -1.93485e-07
207 3 2.8 0.8 0 0 0 0 0.0124769 1.06018e-05 0 0.04 0.999903 -0.000230514 -0.000417109 -0 -3.6584e-07
160 3 3 0.6 0 0 0 0 0.011509 -0.000474459 0 0.04 0.999903 -0.000227029 -0.000229497 -0 -1.18678e-06
161 3 3.2 0.6 0 0 0 0 0.0119869 -0.000480853 0 0.04 0.999903 -3.82515e-05 -0.000227472 -0 -1.80872e-06
208 3 3 0.8 0 0 0 0 0.0115196 -4.27797e-06 0 0.04 0.999903 -0.000230652 -0.000423873 -0 -5.28815e-09
209 3 3.2 0.8 0 0 0 0 0.0119877 -1.42333e-05 0 0.04 0.999903 -3.69257e-05 -0.000421223 -0 1.00351e-06
162 3 3.4 0.6 0 0 0 0 0.0125124 -0.000472846 0 0.04 0.999903 -0.000229517 -0.000225974 -0 8.43954e-07
163 3 3.6 0.6 0 0 0 0 0.0115242 -0.000481101 0 0.04 0.999903 -0.000234068 -0.000230673 -0 -2.65441e-07
164 3 3.8 0.6 0 0 0 0 0.0119921 -0.000505638 0 0.04 0.999903 -0.000420066 -0.000226749 -0 3.96052e-07
210 3 3.4 0.8 0 0 0 0 0.0124771 -5.55122e-06 0 0.04 0.999903 -0.000228208 -0.000417654 -0 -1.01706e-06
211 3 3.6 0.8 0 0 0 0 0.0115131 -1.88881e-05 0 0.04 0.999903 -0.000225404 -0.000419065 -0 3.33621e-07
212 3 3.8 0.8 0 0 0 0 0.0120198 -6.1018e-06 0 0.04 0.999903 -0.000422406 -0.000423274 -0 -1.69904e-07
165 3 4 0.6 0 0 0 0 0.0115364 -0.000487022 0 0.04 0.999903 -0.000229624 -0.000228085 -0 3.34882e-07
166 3 4.2 0.6 0 0 0 0 0.0120375 -0.000498665 0 0.04 0.999903 -3.60341e-05 -0.000229916 -0 -2.42131e-06
213 3 4 0.8 0 0 0 0 0.0115209 2.40788e-06 0 0.04 0.999903 -0.000224895 -0.000422355 -0 -3.58136e-07
214 3 4.2 0.8 0 0 0 0 0.0119925 2.39126e-05 0 0.04 0.999903 -3.8735e-05 -0.00042083 -0 -1.74887e-06
167 3 4.4 0.6 0 0 0 0 0.0124702 -0.000485308 0 0.04 0.999903 -0.000232303 -0.000228341 -0 8.02794e-07
168 3 4.6 0.6 0 0 0 0 0.0124664 -0.000485931 0 0.04 0.999903 -0.000226955 -0.000230616 -0 -4.87359e-06
215 3 4.4 0.8 0 0 0 0 0.0124887 -2.34332e-05 0 0.04 0.999903 -0.000225141 -0.000420253 -0 -1.49704e-06
216 3 4.6 0.8 0 0 0 0 0.0124537 -1.36183e-05 0 0.04 0.999903 -0.000230254 -0.000423783 -0 -6.38173e-07
169 3 4.8 0.6 0 0 0 0 0.0124891 -0.000469891 0 0.04 0.999903 -0.000225219 -0.000227348 -0 1.308e-06
170 3 5 0.6 0 0 0 0 0.011507 -0.000468509 0 0.04 0.999903 -0.000227099 -0.00022747 -0 1.24446e-06
171 3 5.2 0.6 0 0 0 0 0.0120194 -0.000499757 0 0.04 0.999903 -4.18024e-05 -0.000231672 -0 -1.43573e-07
217 3 4.8 0.8 0 0 0 0 0.0124999 1.44063e-05 0 0.04 0.999903 -0.00022677 -0.000422382 -0 -2.30089e-06
218 3 5 0.8 0 0 0 0 0.0115304 6.33971e-06 0 0.04 0.999903 -0.000229083 -0.000422409 -0 1.93543e-06
219 3 5.2 0.8 0 0 0 0 0.0120014 3.29633e-05 0 0.04 0.999903 -3.34561e-05 -0.000420302 -0 5.7031e-07
172 3 5.4 0.6 0 0 0 0 0.0120049 -0.000455129 0 0.04 0.999903 -3.7871e-05 -0.000222903 -0 -1.29254e-07
173 3 5.6 0.6 0 0 0 0 0.0120026 -0.00046515 0 0.04 0.999903 -3.63991e-05 -0.000228496 -0 1.09256e-06
220 3 5.4 0.8 0 0 0 0 0.0119884 -2.30958e-05 0 0.04 0.999903 -3.50932e-05 -0.000421132 -0 1.07413e-06
221 3 5.6 0.8 0 0 0 0 0.0119938 -5.58122e-06 0 0.04 0.999903 -3.46704e-05 -0.000423611 -0 -1.08483e-07
174 3 5.8 0.6 0 0 0 0 0.0124724 -0.000464516 0 0.04 0.999903 -0.000229281 -0.000233252 -0 2.83858e-06
175 3 6 0.6 0 0 0 0 0.0115196 -0.000443985 0 0.04 0.999903 -0.000227381 -0.000231186 -0 -5.40866e-07
176 3 6.2 0.6 0 0 0 0 0.0120084 -0.000464112 0 0.04 0.999903 -3.53347e-05 -0.000223249 -0 -4.78676e-07
222 3 5.8 0.8 0 0 0 0 0.0124665 3.81481e-06 0 0.04 0.999903 -0.000229633 -0.000425077 -0 1.45514e-06
223 3 6 0.8 0 0 0 0 0.0115118 -3.18594e-05 0 0.04 0.999903 -0.000225901 -0.000419015 -0 3.56446e-08
224 3 6.2 0.8 0 0 0 0 0.0119909 -2.14486e-05 0 0.04 0.999903 -3.76237e-05 -0.000423633 -0 4.12215e-07
177 3 6.4 0.6 0 0 0 0 0.0120036 -0.000477063 0 0.04 0.999903 -3.70504e-05 -0.000227864 -0 7.80719e-07
178 3 6.6 0.6 0 0 0 0 0.0119857 -0.000486762 0 0.04 0.999903 -3.7527e-05 -0.000229504 -0 1.60837e-06
225 3 6.4 0.8 0 0 0 0 0.0119967 -1.3202e-05 0 0.04 0.999903 -3.71227e-05 -0.000423228 -0 2.68655e-07
226 3 6.6 0.8 0 0 0 0 0.0120085 2.0349e-05 0 0.04 0.999903 -3.34626e-05 -0.000417044 -0 -4.77352e-08
179 3 6.8 0.6 0 0 0 0 0.0124552 -0.000454694 0 0.04 0.999903 -0.000229126 -0.000226309 -0 -7.54983e-07
180 3 7 0.6 0 0 0 0 0.0115184 -0.000476365 0 0.04 0.999903 -0.000228771 -0.000226554 -0 -3.70854e-07
181 3 7.2 0.6 0 0 0 0 0.0119905 -0.000477546 0 0.04 0.999903 -3.83582e-05 -0.000232451 -0 2.35252e-06
227 3 6.8 0.8 0 0 0 0 0.012478 8.2693e-06 0 0.04 0.999903 -0.000229245 -0.000420385 -0 1.83955e-07
228 3 7 0.8 0 0 0 0 0.0115236 -2.82007e-06 0 0.04 0.999903 -0.000231523 -0.000423135 -0 -1.51745e-06
229 3 7.2 0.8 0 0 0 0 0.0120097 4.21666e-06 0 0.04 0.999903 -4.18444e-05 -0.000425083 -0 -1.85602e-06
182 3 7.4 0.6 0 0 0 0 0.0115271 -0.000459801 0 0.04 0.999903 -0.000229245 -0.000225894 -0 3.40259e-06
183 3 7.6 0.6 0 0 0 0 0.0120037 -0.000473967 0 0.04 0.999903 -3.47895e-05 -0.000225178 -0 -5.67645e-07
230 3 7.4 0.8 0 0 0 0 0.0115134 -3.16247e-08 0 0.04 0.999903 -0.000228717 -0.000420323 -0 -1.2006e-06
231 3 7.6 0.8 0 0 0 0 0.0120116 -2.18766e-05 0 0.04 0.999903 -3.58832e-05 -0.000418548 -0 5.28901e-07
184 3 7.8 0.6 0 0 0 0 0.0124508 -0.000491006 0 0.04 0.999903 -0.000228598 -0.000228118 -0 -1.01025e-06
185 3 8 0.6 0 0 0 0 0.0115253 -0.000485455 0 0.04 0.999903 -0.000229142 -0.000227387 -0 3.52685e-07
232 3 7.8 0.8 0 0 0 0 0.0124806 -8.8331e-06 0 0.04 0.999903 -0.000230929 -0.000420409 -0 1.73104e-06
233 3 8 0.8 0 0 0 0 0.0115044 -6.40721e-06 0 0.04 0.999903 -0.000227968 -0.000420762 -0 1.41243e-06
186 3 8.2 0.6 0 0 0 0 0.0124934 -0.000466535 0 0.04 0.999903 -0.00023115 -0.000226039 -0 1.88506e-07
187 3 8.4 0.6 0 0 0 0 0.0115436 -0.00051697 0 0.04 0.999903 -0.000233105 -0.000230307 -0 -7.64671e-08
188 3 8.6 0.6 0 0 0 0 0.0115237 -0.000509802 0 0.04 0.999903 -0.000233773 -0.000233036 -0 -1.82501e-06
234 3 8.2 0.8 0 0 0 0 0.0124955 1.42058e-05 0 0.04 0.999903 -0.000231995 -0.000417459 -0 2.67979e-07
235 3 8.4 0.8 0 0 0 0 0.0115096 1.42581e-05 0 0.04 0.999903 -0.000225216 -0.000420785 -0 -6.22435e-07
236 3 8.6 0.8 0 0 0 0 0.0115288 9.42486e-07 0 0.04 0.999903 -0.000228605 -0.000424969 -0 5.50312e-07
189 3 8.8 0.6 0 0 0 0 0.0119851 -0.000494811 0 0.04 0.999903 -0.000424275 -0.000227506 -0 1.26829e-06
190 3 9 0.6 0 0 0 0 0.0115346 -0.000479513 0 0.04 0.999903 -0.000225816 -0.00022445 -0 -9.23111e-08
237 3 8.8 0.8 0 0 0 0 0.0120233 -9.63977e-06 0 0.04 0.999903 -0.000422408 -0.000423521 -0 2.95254e-07
238 3 9 0.8 0 0 0 0 0.0115312 2.47096e-05 0 0.04 0.999903 -0.000231381 -0.000425487 -0 -6.24154e-07
191 3 9.2 0.6 0 0 0 0 0.0120077 -0.00050093 0 0.04 0.999903 -0.000419407 -0.000226758 -0 2.89521e-07
192 3 9.4 0.6 0 0 0 0 0.0120023 -0.000480842 0 0.04 0.999903 -0.00041834 -0.000230798 -0 2.56027e-06
239 3 9.2 0.8 0 0 0 0 0.0119802 1.92408e-05 0 0.04 0.999903 -0.000423496 -0.00042079 -0 -2.37476e-07
240 3 9.4 0.8 0 0 0 0 0.0120002 -2.95078e-05 0 0.04 0.999903 -0.000422368 -0.000420948 -0 -5.90847e-08
241 3 0 1 0 0 0 0 0.0120437 -2.71571e-06 0 0.04 0.999903 -0.000426729 -0.000422841 -0 -1.58294e-06
242 3 0.2 1 0 0 0 0 0.0120082 -2.31902e-06 0 0.04 0.999903 -0.000421364 -0.000420806 -0 -9.79563e-07
243 3 0.4 1 0 0 0 0 0.0119859 1.57565e-05 0 0.04 0.999903 -0.000420144 -0.000419217 -0 -2.78368e-06
289 1 0 1.2 0 0 0 0 0.0119874 0.000478721 0 0.04 0.999903 -0.000419697 -0.000228121 -0 -5.20425e-08
290 1 0.2 1.2 0 0 0 0 0.0120407 0.000494792 0 0.04 0.999903 -0.000417686 -0.000227373 -0 -1.01549e-06
291 1 0.4 1.2 0 0 0 0 0.011991 0.000480445 0 0.04 0.999903 -0.00042177 -0.000235769 -0 1.3004e-06
337 1 0 1.4 0 0 0 0 0.0120287 -8.18434e-06 0 0.04 0.999903 -0.000422178 -0.000419765 -0 -5.92878e-07
338 1 0.2 1.4 0 0 0 0 0.0120061 -3.34655e-05 0 0.04 0.999903 -0.000424209 -0.000424533 -0 2.90155e-06
339 1 0.4 1.4 0 0 0 0 0.0120085 3.58524e-06 0 0.04 0.999903 -0.000421976 -0.000418123 -0 3.70743e-07
244 3 0.6 1 0 0 0 0 0.0120186 2.78019e-05 0 0.04 0.999903 -0.00042063 -0.00041973 -0 -4.45022e-07
245 3 0.8 1 0 0 0 0 0.0120207 -2.06006e-06 0 0.04 0.999903 -0.000419358 -0.000422629 -0 -1.08113e-06
292 1 0.6 1.2 0 0 0 0 0.0120206 0.000475073 0 0.04 0.999903 -0.000418342 -0.000227563 -0 7.67396e-07
293 1 0.8 1.2 0 0 0 0 0.0120133 0.000482429 0 0.04 0.999903 -0.000417916 -0.000225991 -0 1.3693e-06
340 1 0.6 1.4 0 0 0 0 0.0119935 -2.10067e-05 0 0.04 0.999903 -0.000426034 -0.000420754 -0 1.6147e-06
341 1 0.8 1.4 0 0 0 0 0.0120187 -1.85531e-05 0 0.04 0.999903 -0.000422038 -0.000420768 -0 2.54151e-06
246 3 1 1 0 0 0 0 0.0120072 6.03693e-06 0 0.04 0.999903 -0.000420612 -0.000419651 -0 -7.14996e-07
247 3 1.2 1 0 0 0 0 0.0124641 7.43587e-06 0 0.04 0.999903 -0.000226439 -0.000419445 -0 1.69271e-06
248 3 1.4 1 0 0 0 0 0.0120083 -1.29481e-05 0 0.04 0.999903 -0.000420242 -0.000415511 -0 -1.91094e-06
294 1 1 1.2 0 0 0 0 0.0119946 0.000468636 0 0.04 0.999903 -0.000419164 -0.000227855 -0 3.02168e-07
295 1 1.2 1.2 0 0 0 0 0.0124654 0.00049589 0 0.04 0.999903 -0.000226229 -0.00022692 -0 -3.05589e-07
296 1 1.4 1.2 0 0 0 0 0.0119918 0.000490717 0 0.04 0.999903 -0.000418082 -0.000227878 -0 -3.40022e-07
342 1 1 1.4 0 0 0 0 0.0119968 -2.00254e-05 0 0.04 0.999903 -0.000424908 -0.000422869 -0 -1.73994e-06
343 1 1.2 1.4 0 0 0 0 0.0125067 -2.40684e-05 0 0.04 0.999903 -0.000231318 -0.000420952 -0 1.53019e-06
344 1 1.4 1.4 0 0 0 0 0.0119937 6.68233e-06 0 0.04 0.999903 -0.000422622 -0.000414504 -0 -1.23897e-06
249 3 1.6 1 0 0 0 0 0.0119944 8.3186e-08 0 0.04 0.999903 -0.000421362 -0.000424076 -0 -2.42901e-07
250 3 1.8 1 0 0 0 0 0.0119659 9.41342e-06 0 0.04 0.999903 -0.00041947 -0.000418655 -0 1.1735e-06
297 1 1.6 1.2 0 0 0 0 0.012007 0.000488036 0 0.04 0.999903 -0.000418247 -0.000234238 -0 -2.57243e-06
298 1 1.8 1.2 0 0 0 0 0.0120159 0.000505778 0 0.04 0.999903 -0.000421276 -0.000231216 -0 8.11649e-07
345 1 1.6 1.4 0 0 0 0 0.0119878 -2.71555e-06 0 0.04 0.999903 -0.000416718 -0.000421707 -0 -1.13263e-06
346 1 1.8 1.4 0 0 0 0 0.0119899 8.24022e-07 0 0.04 0.999903 -0.000421245 -0.000416699 -0 -7.84502e-07
251 3 2 1 0 0 0 0 0.011533 2.92802e-05 0 0.04 0.999903 -0.000231617 -0.000423606 -0 -1.83293e-06
252 3 2.2 1 0 0 0 0 0.0124807 1.15224e-05 0 0.04 0.999903 -0.000231038 -0.000419238 -0 2.85629e-07
299 1 2 1.2 0 0 0 0 0.0115199 0.00047214 0 0.04 0.999903 -0.000232178 -0.0002314 -0 -5.90545e-07
300 1 2.2 1.2 0 0 0 0 0.0124658 0.000472393 0 0.04 0.999903 -0.000227859 -0.000227925 -0 8.12747e-08
347 1 2 1.4 0 0 0 0 0.0115257 -6.7572e-06 0 0.04 0.999903 -0.000231512 -0.000422027 -0 -8.44093e-07
348 1 2.2 1.4 0 0 0 0 0.0124935 1.69067e-05 0 0.04 0.999903 -0.00022854 -0.000422655 -0 -1.64785e-06
253 3 2.4 1 0 0 0 0 0.01247 2.08464e-05 0 0.04 0.999903 -0.000229271 -0.00041835 -0 3.29603e-07
254 3 2.6 1 0 0 0 0 0.0120181 1.46729e-05 0 0.04 0.999903 -0.000419649 -0.000420231 -0 -5.88632e-07
255 3 2.8 1 0 0 0 0 0.0125176 1.90871e-05 0 0.04 0.999903 -0.000226076 -0.000415597 -0 3.00364e-07
301 1 2.4 1.2 0 0 0 0 0.0124886 0.000479618 0 0.04 0.999903 -0.000228503 -0.000229728 -0 -1.81048e-07
302 1 2.6 1.2 0 0 0 0 0.0120179 0.000459146 0 0.04 0.999903 -0.000420767 -0.000228581 -0 -6.06104e-07
303 1 2.8 1.2 0 0 0 0 0.0124491 0.000470968 0 0.04 0.999903 -0.000231494 -0.000225576 -0 1.8386e-07
349 1 2.4 1.4 0 0 0 0 0.0124773 6.06835e-06 0 0.04 0.999903 -0.000229038 -0.000421846 -0 2.91794e-06
350 1 2.6 1.4 0 0 0 0 0.0119906 3.72312e-06 0 0.04 0.999903 -0.000426492 -0.000421295 -0 -1.00303e-06
351 1 2.8 1.4 0 0 0 0 0.0124568 -3.45774e-05 0 0.04 0.999903 -0.000226728 -0.000416544 -0 -1.68855e-06
256 3 3 1 0 0 0 0 0.0115068 5.54768e-06 0 0.04 0.999903 -0.000233591 -0.0004247 -0 4.87337e-07
257 3 3.2 1 0 0 0 0 0.0119835 1.68419e-05 0 0.04 0.999903 -3.67952e-05 -0.000421478 -0 -3.16931e-06
304 1 3 1.2 0 0 0 0 0.0115072 0.000482999 0 0.04 0.999903 -0.000228122 -0.000225537 -0 -7.02829e-07
305 1 3.2 1.2 0 0 0 0 0.0119977 0.000489456 0 0.04 0.999903 -4.0117e-05 -0.00022968 -0 -1.28785e-06
352 1 3 1.4 0 0 0 0 0.0115271 3.02954e-06 0 0.04 0.999903 -0.000227674 -0.000414883 -0 -2.33601e-06
353 1 3.2 1.4 0 0 0 0 0.0120118 -1.04402e-05 0 0.04 0.999903 -3.91983e-05 -0.000418724 -0 1.60293e-06
258 3 3.4 1 0 0 0 0 0.0124756 -2.19943e-05 0 0.04 0.999903 -0.000230712 -0.000420375 -0 5.4108e-07
259 3 3.6 1 0 0 0 0 0.0115345 4.23183e-06 0 0.04 0.999903 -0.000231486 -0.000418874 -0 6.29951e-08
260 3 3.8 1 0 0 0 0 0.0120163 1.29683e-06 0 0.04 0.999903 -0.000423087 -0.000423987 -0 8.77213e-08
306 1 3.4 1.2 0 0 0 0 0.0124826 0.000513383 0 0.04 0.999903 -0.000230369 -0.000230727 -0 -1.42307e-06