ITEM: TIMESTEP
0
ITEM: NUMBER OF ATOMS
10000
ITEM: BOX BOUNDS pp pp pp
0.0000000000000000e+00 2.0000000000000000e+01
0.0000000000000000e+00 2.0000000000000000e+01
0.0000000000000000e+00 2.0000000000000001e-01
ITEM: ATOMS id type x y z vx vy vz fx fy fz mass c_density c_peratom[1] c_peratom[2] c_peratom[3] c_peratom[4] c_gamma
1 3 0 0 0 0 0 0 0.0119618 -3.51605e-05 0 0.04 0.999903 6.52988e-05 6.4664e-05 -0 -2.8132e-08 0
2 3 0.2 0 0 0 0 0 0.0119415 -5.63548e-05 0 0.04 0.999903 6.39826e-05 6.26162e-05 -0 2.65866e-07 0
3 3 0.4 0 0 0 0 0 0.0119533 -4.78609e-05 0 0.04 0.999903 6.33742e-05 6.26985e-05 -0 -3.68693e-07 0
101 3 0 0.2 0 0 0 0 0.0119447 -5.2512e-05 0 0.04 0.999903 6.61873e-05 6.64025e-05 -0 3.55993e-07 0
102 3 0.2 0.2 0 0 0 0 0.0119595 -4.1109e-05 0 0.04 0.999903 6.54974e-05 6.56309e-05 -0 3.35016e-07 0
103 3 0.4 0.2 0 0 0 0 0.0119411 -4.12974e-05 0 0.04 0.999903 6.41393e-05 6.2639e-05 -0 -4.5605e-07 0
201 3 0 0.4 0 0 0 0 0.0119528 -5.00944e-05 0 0.04 0.999903 6.45844e-05 6.33296e-05 -0 -4.52523e-07 0
202 3 0.2 0.4 0 0 0 0 0.0119481 -5.84286e-05 0 0.04 0.999903 6.53762e-05 6.5511e-05 -0 1.22084e-07 0
203 3 0.4 0.4 0 0 0 0 0.011957 -5.17377e-05 0 0.04 0.999903 6.36555e-05 6.43702e-05 -0 9.20213e-07 0
4 3 0.6 0 0 0 0 0 0.0120102 -4.62445e-05 0 0.04 0.999903 4.62432e-05 6.5729e-05 -0 -2.37345e-07 0
5 3 0.8 0 0 0 0 0 0.0120124 -5.14647e-05 0 0.04 0.999903 4.48829e-05 6.37725e-05 -0 1.2284e-06 0
104 3 0.6 0.2 0 0 0 0 0.0119972 -4.51658e-05 0 0.04 0.999903 4.53125e-05 6.18483e-05 -0 -5.27451e-07 0
105 3 0.8 0.2 0 0 0 0 0.0119978 -5.33247e-05 0 0.04 0.999903 4.38604e-05 6.23174e-05 -0 -3.08277e-07 0
204 3 0.6 0.4 0 0 0 0 0.0119852 -5.25014e-05 0 0.04 0.999903 4.5481e-05 6.23672e-05 -0 6.87673e-07 0
205 3 0.8 0.4 0 0 0 0 0.0120017 -3.50414e-05 0 0.04 0.999903 4.38738e-05 6.40597e-05 -0 1.73838e-08 0
6 3 1 0 0 0 0 0 0.0119922 -5.8273e-05 0 0.04 0.999903 4.51176e-05 6.38838e-05 -0 6.71831e-07 0
7 3 1.2 0 0 0 0 0 0.0120493 -4.94102e-05 0 0.04 0.999903 6.53829e-05 6.6776e-05 -0 4.85805e-08 0
8 3 1.4 0 0 0 0 0 0.0119971 -5.41174e-05 0 0.04 0.999903 4.64614e-05 6.49945e-05 -0 -1.09672e-07 0
106 3 1 0.2 0 0 0 0 0.0119961 -4.35476e-05 0 0.04 0.999903 4.49996e-05 6.31495e-05 -0 -1.52626e-06 0
107 3 1.2 0.2 0 0 0 0 0.01205 -2.88081e-05 0 0.04 0.999903 6.4869e-05 6.41841e-05 -0 1.36736e-06 0
108 3 1.4 0.2 0 0 0 0 0.0119991 -3.54469e-05 0 0.04 0.999903 4.49869e-05 6.53858e-05 -0 9.02384e-07 0
206 3 1 0.4 0 0 0 0 0.0120109 -6.17761e-05 0 0.04 0.999903 4.45359e-05 6.4277e-05 -0 1.03412e-06 0
207 3 1.2 0.4 0 0 0 0 0.0120533 -5.65506e-05 0 0.04 0.999903 6.33577e-05 6.40058e-05 -0 -1.98701e-07 0
208 3 1.4 0.4 0 0 0 0 0.0119945 -5.12577e-05 0 0.04 0.999903 4.54675e-05 6.66775e-05 -0 -1.40592e-07 0
9 3 1.6 0 0 0 0 0 0.0119962 -4.14173e-05 0 0.04 0.999903 4.43342e-05 6.40321e-05 -0 1.68982e-06 0
10 3 1.8 0 0 0 0 0 0.0119998 -4.6996e-05 0 0.04 0.999903 4.46705e-05 6.37561e-05 -0 9.06835e-07 0
109 3 1.6 0.2 0 0 0 0 0.0119969 -5.98054e-05 0 0.04 0.999903 4.63517e-05 6.55923e-05 -0 -1.29834e-07 0
110 3 1.8 0.2 0 0 0 0 0.0120085 -4.63082e-05 0 0.04 0.999903 4.48784e-05 6.46527e-05 -0 -8.16128e-07 0
209 3 1.6 0.4 0 0 0 0 0.0119929 -4.91209e-05 0 0.04 0.999903 4.57211e-05 6.43766e-05 -0 7.9541e-07 0
210 3 1.8 0.4 0 0 0 0 0.012007 -5.00127e-05 0 0.04 0.999903 4.62163e-05 6.52061e-05 -0 -2.59981e-08 0
11 3 2 0 0 0 0 0 0.0119472 -4.67438e-05 0 0.04 0.999903 6.2527e-05 6.53017e-05 -0 -2.41519e-07 0
12 3 2.2 0 0 0 0 0 0.0120448 -4.32583e-05 0 0.04 0.999903 6.50131e-05 6.44114e-05 -0 9.899e-07 0
13 3 2.4 0 0 0 0 0 0.0120505 -5.26686e-05 0 0.04 0.999903 6.4273e-05 6.50012e-05 -0 -2.21388e-07 0
111 3 2 0.2 0 0 0 0 0.0119372 -4.88198e-05 0 0.04 0.999903 6.55043e-05 6.51779e-05 -0 1.68482e-07 0
112 3 2.2 0.2 0 0 0 0 0.0120517 -5.25172e-05 0 0.04 0.999903 6.38667e-05 6.51712e-05 -0 -6.06591e-08 0
113 3 2.4 0.2 0 0 0 0 0.0120429 -3.97793e-05 0 0.04 0.999903 6.38787e-05 6.33334e-05 -0 5.70331e-07 0
211 3 2 0.4 0 0 0 0 0.0119455 -4.75673e-05 0 0.04 0.999903 6.28556e-05 6.3546e-05 -0 -1.2887e-06 0
212 3 2.2 0.4 0 0 0 0 0.0120521 -4.6285e-05 0 0.04 0.999903 6.33752e-05 6.32238e-05 -0 -1.83716e-07 0
213 3 2.4 0.4 0 0 0 0 0.0120372 -4.17699e-05 0 0.04 0.999903 6.55518e-05 6.54965e-05 -0 -1.22926e-07 0
14 3 2.6 0 0 0 0 0 0.0119911 -4.74931e-05 0 0.04 0.999903 4.40437e-05 6.54986e-05 -0 3.10811e-07 0
15 3 2.8 0 0 0 0 0 0.0120475 -3.95396e-05 0 0.04 0.999903 6.38121e-05 6.59316e-05 -0 -2.33661e-07 0
114 3 2.6 0.2 0 0 0 0 0.0120022 -5.39451e-05 0 0.04 0.999903 4.58575e-05 6.42823e-05 -0 -3.96637e-07 0
115 3 2.8 0.2 0 0 0 0 0.0120475 -4.21026e-05 0 0.04 0.999903 6.31944e-05 6.3343e-05 -0 -6.82664e-07 0
214 3 2.6 0.4 0 0 0 0 0.012001 -4.64083e-05 0 0.04 0.999903 4.65815e-05 6.63291e-05 -0 1.96804e-07 0
215 3 2.8 0.4 0 0 0 0 0.0120512 -6.52637e-05 0 0.04 0.999903 6.12131e-05 6.34792e-05 -0 -2.75108e-07 0
16 3 3 0 0 0 0 0 0.0119598 -4.83707e-05 0 0.04 0.999903 6.26318e-05 6.3984e-05 -0 -5.222e-07 0
17 3 3.2 0 0 0 0 0 0.0120083 -5.20403e-05 0 0.04 0.999903 8.46126e-05 6.49474e-05 -0 1.19538e-08 0
18 3 3.4 0 0 0 0 0 0.0120558 -4.07176e-05 0 0.04 0.999903 6.41702e-05 6.2679e-05 -0 8.65365e-07 0
116 3 3 0.2 0 0 0 0 0.0119371 -4.31175e-05 0 0.04 0.999903 6.54515e-05 6.54609e-05 -0 6.93065e-07 0
117 3 3.2 0.2 0 0 0 0 0.0120041 -4.81846e-05 0 0.04 0.999903 8.42809e-05 6.61013e-05 -0 -3.22108e-07 0
118 3 3.4 0.2 0 0 0 0 0.0120553 -4.82871e-05 0 0.04 0.999903 6.26694e-05 6.4233e-05 -0 1.28603e-07 0
216 3 3 0.4 0 0 0 0 0.0119632 -4.43136e-05 0 0.04 0.999903 6.50263e-05 6.42753e-05 -0 -1.01562e-07 0
217 3 3.2 0.4 0 0 0 0 0.0120031 -5.76123e-05 0 0.04 0.999903 8.3409e-05 6.39241e-05 -0 2.26169e-07 0
218 3 3.4 0.4 0 0 0 0 0.0120429 -4.8711e-05 0 0.04 0.999903 6.51336e-05 6.42262e-05 -0 -2.40455e-07 0
19 3 3.6 0 0 0 0 0 0.0119547 -4.31652e-05 0 0.04 0.999903 6.40074e-05 6.33123e-05 -0 -1.0927e-06 0
20 3 3.8 0 0 0 0 0 0.0120075 -4.69961e-05 0 0.04 0.999903 4.35693e-05 6.42732e-05 -0 1.67349e-07 0
119 3 3.6 0.2 0 0 0 0 0.011947 -3.49361e-05 0 0.04 0.999903 6.4872e-05 6.63453e-05 -0 1.0819e-06 0
120 3 3.8 0.2 0 0 0 0 0.0119971 -4.70951e-05 0 0.04 0.999903 4.5297e-05 6.37763e-05 -0 9.82894e-07 0
219 3 3.6 0.4 0 0 0 0 0.0119431 -6.33843e-05 0 0.04 0.999903 6.39612e-05 6.56856e-05 -0 1.61294e-07 0
220 3 3.8 0.4 0 0 0 0 0.0120009 -5.12618e-05 0 0.04 0.999903 4.62397e-05 6.45254e-05 -0 -3.33984e-07 0
21 3 4 0 0 0 0 0 0.0119526 -3.95707e-05 0 0.04 0.999903 6.51018e-05 6.50576e-05 -0 3.36992e-07 0
22 3 4.2 0 0 0 0 0 0.0120088 -3.43486e-05 0 0.04 0.999903 8.27988e-05 6.36603e-05 -0 4.76682e-07 0
121 3 4 0.2 0 0 0 0 0.0119571 -5.93015e-05 0 0.04 0.999903 6.39108e-05 6.41199e-05 -0 -6.76583e-07 0
122 3 4.2 0.2 0 0 0 0 0.0119987 -4.05216e-05 0 0.04 0.999903 8.29009e-05 6.40998e-05 -0 1.14199e-07 0
221 3 4 0.4 0 0 0 0 0.0119576 -4.53812e-05 0 0.04 0.999903 6.50491e-05 6.40112e-05 -0 3.27486e-07 0
222 3 4.2 0.4 0 0 0 0 0.0120102 -5.4732e-05 0 0.04 0.999903 8.34098e-05 6.59919e-05 -0 6.9131e-07 0
23 3 4.4 0 0 0 0 0 0.0120462 -5.85201e-05 0 0.04 0.999903 6.5305e-05 6.38538e-05 -0 -4.33754e-07 0
24 3 4.6 0 0 0 0 0 0.0120357 -4.40893e-05 0 0.04 0.999903 6.54552e-05 6.55496e-05 -0 -3.06066e-07 0
25 3 4.8 0 0 0 0 0 0.0120564 -4.60065e-05 0 0.04 0.999903 6.10389e-05 6.24037e-05 -0 6.96579e-07 0
123 3 4.4 0.2 0 0 0 0 0.012041 -4.70277e-05 0 0.04 0.999903 6.54589e-05 6.4226e-05 -0 1.45003e-09 0
124 3 4.6 0.2 0 0 0 0 0.0120572 -4.23172e-05 0 0.04 0.999903 6.22437e-05 6.28261e-05 -0 5.51024e-07 0
125 3 4.8 0.2 0 0 0 0 0.0120415 -4.65246e-05 0 0.04 0.999903 6.51942e-05 6.55978e-05 -0 -4.48678e-07 0
223 3 4.4 0.4 0 0 0 0 0.0120535 -4.03462e-05 0 0.04 0.999903 6.43137e-05 6.52993e-05 -0 2.02317e-07 0
224 3 4.6 0.4 0 0 0 0 0.0120463 -5.67471e-05 0 0.04 0.999903 6.42514e-05 6.52374e-05 -0 3.48907e-07 0
225 3 4.8 0.4 0 0 0 0 0.0120383 -4.53047e-05 0 0.04 0.999903 6.7432e-05 6.66895e-05 -0 -1.44881e-07 0
26 3 5 0 0 0 0 0 0.011952 -5.07828e-05 0 0.04 0.999903 6.44973e-05 6.61949e-05 -0 2.02561e-07 0
27 3 5.2 0 0 0 0 0 0.0120041 -4.96155e-05 0 0.04 0.999903 8.36223e-05 6.3784e-05 -0 6.80135e-07 0
126 3 5 0.2 0 0 0 0 0.0119493 -5.00605e-05 0 0.04 0.999903 6.47993e-05 6.37146e-05 -0 -8.01836e-07 0
127 3 5.2 0.2 0 0 0 0 0.0120024 -4.36739e-05 0 0.04 0.999903 8.31693e-05 6.36966e-05 -0 4.09038e-07 0
226 3 5 0.4 0 0 0 0 0.0119458 -4.22179e-05 0 0.04 0.999903 6.52713e-05 6.35923e-05 -0 -1.86143e-07 0
227 3 5.2 0.4 0 0 0 0 0.0119979 -3.94103e-05 0 0.04 0.999903 8.2903e-05 6.43866e-05 -0 -9.75071e-07 0
28 3 5.4 0 0 0 0 0 0.0120001 -4.41657e-05 0 0.04 0.999903 8.33944e-05 6.40509e-05 -0 1.47374e-07 0
29 3 5.6 0 0 0 0 0 0.0120105 -5.06937e-05 0 0.04 0.999903 8.31526e-05 6.42381e-05 -0 -2.46113e-07 0
30 3 5.8 0 0 0 0 0 0.0120495 -4.13015e-05 0 0.04 0.999903 6.49132e-05 6.26673e-05 -0 9.85055e-07 0
128 3 5.4 0.2 0 0 0 0 0.0119972 -3.67484e-05 0 0.04 0.999903 8.2796e-05 6.4584e-05 -0 1.53251e-07 0
129 3 5.6 0.2 0 0 0 0 0.0120037 -4.49062e-05 0 0.04 0.999903 8.55477e-05 6.7109e-05 -0 1.12113e-07 0
130 3 5.8 0.2 0 0 0 0 0.0120571 -4.66911e-05 0 0.04 0.999903 6.44634e-05 6.27032e-05 -0 4.52187e-08 0
228 3 5.4 0.4 0 0 0 0 0.0120091 -5.27442e-05 0 0.04 0.999903 8.53544e-05 6.51485e-05 -0 2.43588e-07 0
229 3 5.6 0.4 0 0 0 0 0.0120061 -4.85168e-05 0 0.04 0.999903 8.31172e-05 6.51085e-05 -0 6.73119e-07 0
230 3 5.8 0.4 0 0 0 0 0.0120441 -4.66366e-05 0 0.04 0.999903 6.49246e-05 6.5603e-05 -0 -3.54922e-07 0
31 3 6 0 0 0 0 0 0.0119512 -5.3304e-05 0 0.04 0.999903 6.65519e-05 6.56218e-05 -0 -7.85975e-07 0
32 3 6.2 0 0 0 0 0 0.0119947 -3.96826e-05 0 0.04 0.999903 8.44916e-05 6.5658e-05 -0 -5.21311e-07 0
131 3 6 0.2 0 0 0 0 0.0119394 -5.45927e-05 0 0.04 0.999903 6.65211e-05 6.50808e-05 -0 2.52653e-07 0
132 3 6.2 0.2 0 0 0 0 0.0120071 -4.87497e-05 0 0.04 0.999903 8.25782e-05 6.4641e-05 -0 -6.56303e-08 0
231 3 6 0.4 0 0 0 0 0.0119369 -4.17158e-05 0 0.04 0.999903 6.54313e-05 6.51049e-05 -0 -1.13798e-06 0
232 3 6.2 0.4 0 0 0 0 0.0119987 -5.036e-05 0 0.04 0.999903 8.3347e-05 6.50669e-05 -0 -3.81212e-07 0
33 3 6.4 0 0 0 0 0 0.0119891 -4.49995e-05 0 0.04 0.999903 8.19911e-05 6.58744e-05 -0 -5.9591e-07 0
34 3 6.6 0 0 0 0 0 0.0120073 -5.471e-05 0 0.04 0.999903 8.42729e-05 6.54912e-05 -0 4.67457e-07 0
35 3 6.8 0 0 0 0 0 0.0120471 -5.00888e-05 0 0.04 0.999903 6.2803e-05 6.31323e-05 -0 -8.49273e-07 0
133 3 6.4 0.2 0 0 0 0 0.0119994 -6.33099e-05 0 0.04 0.999903 8.34712e-05 6.37293e-05 -0 1.58636e-07 0
134 3 6.6 0.2 0 0 0 0 0.011995 -3.73552e-05 0 0.04 0.999903 8.60753e-05 6.46568e-05 -0 1.06351e-07 0
135 3 6.8 0.2 0 0 0 0 0.0120472 -4.03827e-05 0 0.04 0.999903 6.51874e-05 6.67532e-05 -0 -4.10647e-07 0
233 3 6.4 0.4 0 0 0 0 0.0119969 -6.1925e-05 0 0.04 0.999903 8.30223e-05 6.28086e-05 -0 3.84372e-07 0
234 3 6.6 0.4 0 0 0 0 0.0120079 -4.19749e-05 0 0.04 0.999903 8.30068e-05 6.40669e-05 -0 5.61467e-07 0
235 3 6.8 0.4 0 0 0 0 0.012053 -4.25867e-05 0 0.04 0.999903 6.33702e-05 6.68997e-05 -0 6.73951e-07 0
36 3 7 0 0 0 0 0 0.0119433 -5.89837e-05 0 0.04 0.999903 6.37959e-05 6.47262e-05 -0 4.6964e-07 0
37 3 7.2 0 0 0 0 0 0.012006 -4.93297e-05 0 0.04 0.999903 8.22564e-05 6.19338e-05 -0 1.66444e-07 0
136 3 7 0.2 0 0 0 0 0.0119493 -4.96543e-05 0 0.04 0.999903 6.38974e-05 6.5218e-05 -0 -6.02674e-07 0
137 3 7.2 0.2 0 0 0 0 0.0120016 -4.10089e-05 0 0.04 0.999903 8.37518e-05 6.48776e-05 -0 -3.60822e-07 0
236 3 7 0.4 0 0 0 0 0.0119472 -4.15974e-05 0 0.04 0.999903 6.45617e-05 6.46332e-05 -0 5.77382e-08 0
237 3 7.2 0.4 0 0 0 0 0.0119977 -3.6608e-05 0 0.04 0.999903 8.21768e-05 6.38197e-05 -0 5.84662e-08 0
38 3 7.4 0 0 0 0 0 0.0119493 -4.51379e-05 0 0.04 0.999903 6.32963e-05 6.33219e-05 -0 1.45894e-07 0
39 3 7.6 0 0 0 0 0 0.0120179 -4.77092e-05 0 0.04 0.999903 8.43596e-05 6.47495e-05 -0 5.02823e-07 0
40 3 7.8 0 0 0 0 0 0.0120393 -5.13577e-05 0 0.04 0.999903 6.44537e-05 6.44835e-05 -0 1.52962e-07 0
138 3 7.4 0.2 0 0 0 0 0.0119615 -5.33432e-05 0 0.04 0.999903 6.42566e-05 6.31383e-05 -0 6.422e-07 0
139 3 7.6 0.2 0 0 0 0 0.0120003 -5.08382e-05 0 0.04 0.999903 8.33651e-05 6.56461e-05 -0 2.70882e-07 0
140 3 7.8 0.2 0 0 0 0 0.0120434 -4.48145e-05 0 0.04 0.999903 6.3617e-05 6.37495e-05 -0 5.43353e-07 0
238 3 7.4 0.4 0 0 0 0 0.0119559 -4.65571e-05 0 0.04 0.999903 6.34664e-05 6.41753e-05 -0 -2.12576e-07 0
239 3 7.6 0.4 0 0 0 0 0.012005 -4.00798e-05 0 0.04 0.999903 8.39593e-05 6.46886e-05 -0 1.38486e-06 0
240 3 7.8 0.4 0 0 0 0 0.0120403 -5.10525e-05 0 0.04 0.999903 6.47524e-05 6.5333e-05 -0 5.14571e-07 0
41 3 8 0 0 0 0 0 0.0119525 -4.95956e-05 0 0.04 0.999903 6.43673e-05 6.32865e-05 -0 1.2673e-07 0
42 3 8.2 0 0 0 0 0 0.0120421 -4.95378e-05 0 0.04 0.999903 6.59585e-05 6.43997e-05 -0 -6.44392e-07 0
141 3 8 0.2 0 0 0 0 0.0119559 -4.84297e-05 0 0.04 0.999903 6.35983e-05 6.44958e-05 -0 1.34652e-06 0
142 3 8.2 0.2 0 0 0 0 0.0120485 -5.60244e-05 0 0.04 0.999903 6.46133e-05 6.64427e-05 -0 -2.4106e-07 0
241 3 8 0.4 0 0 0 0 0.011956 -4.6175e-05 0 0.04 0.999903 6.41281e-05 6.50565e-05 -0 -3.66464e-07 0
242 3 8.2 0.4 0 0 0 0 0.0120499 -4.69135e-05 0 0.04 0.999903 6.5306e-05 6.31582e-05 -0 1.5359e-07 0
43 3 8.4 0 0 0 0 0 0.0119643 -4.46629e-05 0 0.04 0.999903 6.46523e-05 6.43937e-05 -0 4.38136e-07 0
44 3 8.6 0 0 0 0 0 0.0119559 -3.98078e-05 0 0.04 0.999903 6.48728e-05 6.36125e-05 -0 7.49646e-07 0
143 3 8.4 0.2 0 0 0 0 0.0119561 -4.2752e-05 0 0.04 0.999903 6.33301e-05 6.3601e-05 -0 -3.98693e-07 0
144 3 8.6 0.2 0 0 0 0 0.0119537 -5.73719e-05 0 0.04 0.999903 6.42672e-05 6.6683e-05 -0 5.63119e-07 0
243 3 8.4 0.4 0 0 0 0 0.0119429 -5.18272e-05 0 0.04 0.999903 6.36829e-05 6.41617e-05 -0 5.96919e-07 0
244 3 8.6 0.4 0 0 0 0 0.0119553 -4.57141e-05 0 0.04 0.999903 6.48431e-05 6.29256e-05 -0 5.32904e-08 0
45 3 8.8 0 0 0 0 0 0.0119942 -4.50372e-05 0 0.04 0.999903 4.793e-05 6.51782e-05 -0 4.05518e-07 0
46 3 9 0 0 0 0 0 0.0119475 -4.50023e-05 0 0.04 0.999903 6.27229e-05 6.27388e-05 -0 3.97024e-07 0
47 3 9.2 0 0 0 0 0 0.0120529 -4.56755e-05 0 0.04 0.999903 6.20291e-05 6.35275e-05 -0 -1.27017e-08 0
145 3 8.8 0.2 0 0 0 0 0.0119878 -4.39535e-05 0 0.04 0.999903 4.59172e-05 6.46424e-05 -0 1.22218e-06 0
146 3 9 0.2 0 0 0 0 0.0119594 -4.69654e-05 0 0.04 0.999903 6.46456e-05 6.37949e-05 -0 4.3168e-07 0
147 3 9.2 0.2 0 0 0 0 0.012044 -4.50416e-05 0 0.04 0.999903 6.61946e-05 6.4562e-05 -0 -4.96076e-08 0
245 3 8.8 0.4 0 0 0 0 0.0120074 -4.52739e-05 0 0.04 0.999903 4.64094e-05 6.41192e-05 -0 2.60659e-07 0
246 3 9 0.4 0 0 0 0 0.0119465 -4.31049e-05 0 0.04 0.999903 6.37427e-05 6.51559e-05 -0 -4.04209e-07 0
247 3 9.2 0.4 0 0 0 0 0.0120433 -5.17373e-05 0 0.04 0.999903 6.30818e-05 6.72025e-05 -0 8.72989e-07 0
48 3 9.4 0 0 0 0 0 0.0120108 -5.08832e-05 0 0.04 0.999903 4.47208e-05 6.39054e-05 -0 -1.04035e-06 0
49 3 9.6 0 0 0 0 0 0.0120617 -5.16681e-05 0 0.04 0.999903 6.47977e-05 6.61149e-05 -0 -7.74833e-07 0
148 3 9.4 0.2 0 0 0 0 0.0120109 -5.14995e-05 0 0.04 0.999903 4.60981e-05 6.33401e-05 -0 9.47058e-08 0
149 3 9.6 0.2 0 0 0 0 0.0120356 -4.60091e-05 0 0.04 0.999903 6.31292e-05 6.28498e-05 -0 4.58702e-07 0
248 3 9.4 0.4 0 0 0 0 0.0120021 -4.66942e-05 0 0.04 0.999903 4.64769e-05 6.42903e-05 -0 2.34425e-09 0
249 3 9.6 0.4 0 0 0 0 0.0120416 -4.09665e-05 0 0.04 0.999903 6.43097e-05 6.47455e-05 -0 3.42127e-07 0
50 3 9.8 0 0 0 0 0 0.0119913 -4.27187e-05 0 0.04 0.999903 4.43115e-05 6.47917e-05 -0 5.6653e-07 0
51 3 10 0 0 0 0 0 0.0119587 -4.78695e-05 0 0.04 0.999903 6.4024e-05 6.3887e-05 -0 7.13675e-07 0
52 3 10.2 0 0 0 0 0 0.0120593 -3.82025e-05 0 0.04 0.999903 6.60275e-05 6.44284e-05 -0 -1.25258e-07 0
150 3 9.8 0.2 0 0 0 0 0.0120076 -4.31944e-05 0 0.04 0.999903 4.63656e-05 6.40898e-05 -0 3.41987e-07 0
151 3 10 0.2 0 0 0 0 0.0119578 -3.80904e-05 0 0.04 0.999903 6.32263e-05 6.38119e-05 -0 4.35005e-07 0
152 3 10.2 0.2 0 0 0 0 0.0120387 -3.71054e-05 0 0.04 0.999903 6.50424e-05 6.44053e-05 -0 4.57031e-07 0
250 3 9.8 0.4 0 0 0 0 0.0119931 -4.89742e-05 0 0.04 0.999903 4.59281e-05 6.34195e-05 -0 8.19519e-09 0
251 3 10 0.4 0 0 0 0 0.0119639 -5.69816e-05 0 0.04 0.999903 6.51009e-05 6.49045e-05 -0 6.66795e-07 0
252 3 10.2 0.4 0 0 0 0 0.0120474 -4.04658e-05 0 0.04 0.999903 6.68998e-05 6.60984e-05 -0 -5.04421e-07 0
53 3 10.4 0 0 0 0 0 0.0119604 -4.1462e-05 0 0.04 0.999903 6.3863e-05 6.37434e-05 -0 6.95814e-07 0
54 3 10.6 0 0 0 0 0 0.0120409 -3.77747e-05 0 0.04 0.999903 6.36409e-05 6.45032e-05 -0 -4.45037e-07 0
153 3 10.4 0.2 0 0 0 0 0.0119475 -4.51726e-05 0 0.04 0.999903 6.41047e-05 6.49926e-05 -0 6.44396e-07 0
154 3 10.6 0.2 0 0 0 0 0.0120441 -4.81124e-05 0 0.04 0.999903 6.48363e-05 6.52946e-05 -0 4.92794e-08 0
253 3 10.4 0.4 0 0 0 0 0.0119494 -5.53804e-05 0 0.04 0.999903 6.50738e-05 6.29895e-05 -0 -1.82363e-07 0
254 3 10.6 0.4 0 0 0 0 0.0120435 -6.00967e-05 0 0.04 0.999903 6.38047e-05 6.34343e-05 -0 -6.90734e-09 0
55 3 10.8 0 0 0 0 0 0.0119969 -5.15242e-05 0 0.04 0.999903 4.54102e-05 6.592e-05 -0 4.7159e-07 0
56 3 11 0 0 0 0 0 0.0119415 -5.22846e-05 0 0.04 0.999903 6.18886e-05 6.38707e-05 -0 -9.54363e-07 0
57 3 11.2 0 0 0 0 0 0.0120397 -5.67025e-05 0 0.04 0.999903 6.35696e-05 6.50429e-05 -0 4.91516e-07 0
155 3 10.8 0.2 0 0 0 0 0.0120044 -4.57433e-05 0 0.04 0.999903 4.73788e-05 6.62364e-05 -0 4.08793e-07 0
156 3 11 0.2 0 0 0 0 0.0119458 -4.08637e-05 0 0.04 0.999903 6.25969e-05 6.45979e-05 -0 -5.74823e-08 0
157 3 11.2 0.2 0 0 0 0 0.0120512 -5.35888e-05 0 0.04 0.999903 6.40155e-05 6.25528e-05 -0 -2.58576e-07 0
255 3 10.8 0.4 0 0 0 0 0.0119988 -4.21686e-05 0 0.04 0.999903 4.51606e-05 6.57866e-05 -0 -4.69104e-07 0
256 3 11 0.4 0 0 0 0 0.0119517 -4.95135e-05 0 0.04 0.999903 6.58297e-05 6.58067e-05 -0 -5.27497e-07 0
257 3 11.2 0.4 0 0 0 0 0.0120488 -3.65657e-05 0 0.04 0.999903 6.46183e-05 6.54538e-05 -0 -1.44865e-06 0
58 3 11.4 0 0 0 0 0 0.0119603 -4.32201e-05 0 0.04 0.999903 6.52487e-05 6.46677e-05 -0 -1.73903e-07 0
59 3 11.6 0 0 0 0 0 0.0120531 -4.88651e-05 0 0.04 0.999903 6.56522e-05 6.70812e-05 -0 -7.48291e-07 0
158 3 11.4 0.2 0 0 0 0 0.011939 -5.29156e-05 0 0.04 0.999903 6.4115e-05 6.49256e-05 -0 1.69812e-07 0
159 3 11.6 0.2 0 0 0 0 0.0120541 -4.68067e-05 0 0.04 0.999903 6.54787e-05 6.44194e-05 -0 -8.58801e-07 0
258 3 11.4 0.4 0 0 0 0 0.0119591 -4.72599e-05 0 0.04 0.999903 6.25158e-05 6.18725e-05 -0 -3.80637e-07 0
259 3 11.6 0.4 0 0 0 0 0.0120574 -4.87007e-05 0 0.04 0.999903 6.45454e-05 6.59241e-05 -0 -4.1001e-07 0
60 3 11.8 0 0 0 0 0 0.0120037 -5.17974e-05 0 0.04 0.999903 4.57889e-05 6.51454e-05 -0 -4.37644e-07 0
61 3 12 0 0 0 0 0 0.0119497 -4.32048e-05 0 0.04 0.999903 6.39474e-05 6.38699e-05 -0 4.78339e-07 0
160 3 11.8 0.2 0 0 0 0 0.012001 -5.89601e-05 0 0.04 0.999903 4.41389e-05 6.49777e-05 -0 1.03666e-06 0
161 3 12 0.2 0 0 0 0 0.0119438 -3.66019e-05 0 0.04 0.999903 6.45785e-05 6.37018e-05 -0 -3.85983e-07 0
260 3 11.8 0.4 0 0 0 0 0.0120036 -4.91073e-05 0 0.04 0.999903 4.53989e-05 6.37346e-05 -0 4.26714e-07 0
261 3 12 0.4 0 0 0 0 0.0119536 -5.04693e-05 0 0.04 0.999903 6.63931e-05 6.2577e-05 -0 1.21207e-07 0
62 3 12.2 0 0 0 0 0 0.0120466 -4.8481e-05 0 0.04 0.999903 6.59176e-05 6.35414e-05 -0 1.29081e-06 0
63 3 12.4 0 0 0 0 0 0.0119501 -4.79527e-05 0 0.04 0.999903 6.45365e-05 6.66122e-05 -0 1.11512e-06 0
64 3 12.6 0 0 0 0 0 0.0120471 -5.64692e-05 0 0.04 0.999903 6.54607e-05 6.44842e-05 -0 -1.40151e-07 0
162 3 12.2 0.2 0 0 0 0 0.0120448 -5.01685e-05 0 0.04 0.999903 6.25013e-05 6.2707e-05 -0 4.3317e-07 0
163 3 12.4 0.2 0 0 0 0 0.0119639 -5.29799e-05 0 0.04 0.999903 6.52403e-05 6.46711e-05 -0 4.39732e-07 0
164 3 12.6 0.2 0 0 0 0 0.012036 -4.39989e-05 0 0.04 0.999903 6.4833e-05 6.4179e-05 -0 8.43406e-07 0
262 3 12.2 0.4 0 0 0 0 0.0120485 -4.79251e-05 0 0.04 0.999903 6.58988e-05 6.36865e-05 -0 -2.07076e-07 0
263 3 12.4 0.4 0 0 0 0 0.0119474 -4.93052e-05 0 0.04 0.999903 6.44042e-05 6.46367e-05 -0 -3.20404e-07 0
264 3 12.6 0.4 0 0 0 0 0.0120526 -4.77418e-05 0 0.04 0.999903 6.34012e-05 6.38355e-05 -0 -2.33505e-07 0
65 3 12.8 0 0 0 0 0 0.0119964 -3.82701e-05 0 0.04 0.999903 4.47952e-05 6.45248e-05 -0 -5.47402e-07 0
66 3 13 0 0 0 0 0 0.0119477 -6.15776e-05 0 0.04 0.999903 6.33585e-05 6.50878e-05 -0 3.44854e-07 0
165 3 12.8 0.2 0 0 0 0 0.0120036 -3.92201e-05 0 0.04 0.999903 4.60008e-05 6.34389e-05 -0 -3.3111e-08 0
166 3 13 0.2 0 0 0 0 0.0119377 -4.4676e-05 0 0.04 0.999903 6.45121e-05 6.23361e-05 -0 -4.29744e-07 0
265 3 12.8 0.4 0 0 0 0 0.0119847 -3.66736e-05 0 0.04 0.999903 4.50483e-05 6.40175e-05 -0 -9.15105e-07 0
266 3 13 0.4 0 0 0 0 0.0119552 -5.25112e-05 0 0.04 0.999903 6.40578e-05 6.382e-05 -0 -5.14536e-07 0
67 3 13.2 0 0 0 0 0 0.0120481 -3.29683e-05 0 0.04 0.999903 6.3803e-05 6.40423e-05 -0 -3.81712e-07 0
68 3 13.4 0 0 0 0 0 0.011945 -5.03046e-05 0 0.04 0.999903 6.21795e-05 6.64165e-05 -0 -6.55295e-07 0
69 3 13.6 0 0 0 0 0 0.0120554 -6.70301e-05 0 0.04 0.999903 6.31059e-05 6.4006e-05 -0 9.05336e-07 0
167 3 13.2 0.2 0 0 0 0 0.0120471 -4.35703e-05 0 0.04 0.999903 6.41895e-05 6.52765e-05 -0 -3.63778e-07 0
168 3 13.4 0.2 0 0 0 0 0.0119493 -5.71224e-05 0 0.04 0.999903 6.22696e-05 6.29004e-05 -0 6.4242e-07 0
169 3 13.6 0.2 0 0 0 0 0.0120427 -4.55701e-05 0 0.04 0.999903 6.45892e-05 6.48106e-05 -0 2.48071e-07 0
267 3 13.2 0.4 0 0 0 0 0.0120504 -5.68171e-05 0 0.04 0.999903 6.36837e-05 6.55832e-05 -0 -3.06189e-07 0
268 3 13.4 0.4 0 0 0 0 0.0119565 -4.35026e-05 0 0.04 0.999903 6.73221e-05 6.59753e-05 -0 -2.28167e-07 0
269 3 13.6 0.4 0 0 0 0 0.0120426 -4.31515e-05 0 0.04 0.999903 6.40773e-05 6.4079e-05 -0 -4.94522e-07 0
70 3 13.8 0 0 0 0 0 0.0120017 -4.03784e-05 0 0.04 0.999903 4.4543e-05 6.36638e-05 -0 -5.69334e-08 0
71 3 14 0 0 0 0 0 0.0119513 -6.24951e-05 0 0.04 0.999903 6.42169e-05 6.56672e-05 -0 -3.54285e-08 0
170 3 13.8 0.2 0 0 0 0 0.0119973 -5.47445e-05 0 0.04 0.999903 4.30852e-05 6.34572e-05 -0 -4.47695e-08 0
171 3 14 0.2 0 0 0 0 0.0119604 -3.50759e-05 0 0.04 0.999903 6.31259e-05 6.37815e-05 -0 1.6685e-07 0
270 3 13.8 0.4 0 0 0 0 0.0120023 -3.18001e-05 0 0.04 0.999903 4.49146e-05 6.45017e-05 -0 -7.81617e-07 0
271 3 14 0.4 0 0 0 0 0.0119532 -5.14226e-05 0 0.04 0.999903 6.54622e-05 6.33873e-05 -0 1.41553e-07 0
72 3 14.2 0 0 0 0 0 0.0120483 -4.57796e-05 0 0.04 0.999903 6.39523e-05 6.49591e-05 -0 5.06754e-07 0
73 3 14.4 0 0 0 0 0 0.0119468 -5.82568e-05 0 0.04 0.999903 6.40789e-05 6.55094e-05 -0 -6.68515e-07 0
74 3 14.6 0 0 0 0 0 0.012056 -3.90749e-05 0 0.04 0.999903 6.50694e-05 6.45412e-05 -0 -4.29491e-08 0
172 3 14.2 0.2 0 0 0 0 0.0120565 -4.49268e-05 0 0.04 0.999903 6.37194e-05 6.39066e-05 -0 -8.8745e-07 0
173 3 14.4 0.2 0 0 0 0 0.0119526 -5.14971e-05 0 0.04 0.999903 6.42028e-05 6.45423e-05 -0 7.55121e-07 0
174 3 14.6 0.2 0 0 0 0 0.0120519 -3.51246e-05 0 0.04 0.999903 6.26762e-05 6.66959e-05 -0 -1.50427e-06 0
272 3 14.2 0.4 0 0 0 0 0.0120405 -5.02155e-05 0 0.04 0.999903 6.36636e-05 6.43647e-05 -0 -8.5273e-08 0
273 3 14.4 0.4 0 0 0 0 0.0119412 -4.86312e-05 0 0.04 0.999903 6.52427e-05 6.49825e-05 -0 -3.04318e-07 0
274 3 14.6 0.4 0 0 0 0 0.0120575 -5.53509e-05 0 0.04 0.999903 6.33609e-05 6.45109e-05 -0 -3.85062e-07 0
75 3 14.8 0 0 0 0 0 0.0119957 -5.11248e-05 0 0.04 0.999903 4.51672e-05 6.25382e-05 -0 -4.43115e-07 0
76 3 15 0 0 0 0 0 0.0119406 -4.88795e-05 0 0.04 0.999903 6.50455e-05 6.53379e-05 -0 -5.76094e-07 0
175 3 14.8 0.2 0 0 0 0 0.0119987 -4.30336e-05 0 0.04 0.999903 4.49779e-05 6.3497e-05 -0 1.65204e-07 0
176 3 15 0.2 0 0 0 0 0.0119518 -4.02061e-05 0 0.04 0.999903 6.37249e-05 6.25981e-05 -0 -1.43347e-07 0
275 3 14.8 0.4 0 0 0 0 0.0120076 -5.06275e-05 0 0.04 0.999903 4.62896e-05 6.4507e-05 -0 1.1695e-07 0
276 3 15 0.4 0 0 0 0 0.0119615 -5.05022e-05 0 0.04 0.999903 6.34005e-05 6.4038e-05 -0 -9.25995e-07 0
77 3 15.2 0 0 0 0 0 0.0120623 -4.6385e-05 0 0.04 0.999903 6.47642e-05 6.444e-05 -0 -2.11655e-08 0
78 3 15.4 0 0 0 0 0 0.0120033 -4.93428e-05 0 0.04 0.999903 8.14087e-05 6.45446e-05 -0 4.66773e-07 0
79 3 15.6 0 0 0 0 0 0.0119905 -3.78409e-05 0 0.04 0.999903 4.46084e-05 6.3539e-05 -0 5.63354e-09 0
177 3 15.2 0.2 0 0 0 0 0.0120383 -3.53388e-05 0 0.04 0.999903 6.45771e-05 6.35225e-05 -0 -4.34037e-07 0
178 3 15.4 0.2 0 0 0 0 0.0120008 -5.08342e-05 0 0.04 0.999903 8.31737e-05 6.57209e-05 -0 3.27849e-07 0
179 3 15.6 0.2 0 0 0 0 0.0120019 -5.05187e-05 0 0.04 0.999903 4.48595e-05 6.36947e-05 -0 5.46593e-07 0
277 3 15.2 0.4 0 0 0 0 0.0120447 -5.27859e-05 0 0.04 0.999903 6.44002e-05 6.37416e-05 -0 5.74979e-07 0
278 3 15.4 0.4 0 0 0 0 0.0119952 -4.38461e-05 0 0.04 0.999903 8.21933e-05 6.27219e-05 -0 1.04791e-06 0
279 3 15.6 0.4 0 0 0 0 0.0120049 -5.14645e-05 0 0.04 0.999903 4.62325e-05 6.46384e-05 -0 5.50741e-07 0
80 3 15.8 0 0 0 0 0 0.0120074 -4.34906e-05 0 0.04 0.999903 4.37671e-05 6.49621e-05 -0 1.17503e-06 0
81 3 16 0 0 0 0 0 0.0119572 -5.64289e-05 0 0.04 0.999903 6.30465e-05 6.27513e-05 -0 -7.40395e-07 0
180 3 15.8 0.2 0 0 0 0 0.0120059 -6.34624e-05 0 0.04 0.999903 4.55823e-05 6.42998e-05 -0 -2.42954e-07 0
181 3 16 0.2 0 0 0 0 0.011953 -5.409e-05 0 0.04 0.999903 6.48822e-05 6.49517e-05 -0 -7.7908e-07 0
280 3 15.8 0.4 0 0 0 0 0.0119988 -3.98282e-05 0 0.04 0.999903 4.65562e-05 6.41762e-05 -0 -7.46151e-07 0
281 3 16 0.4 0 0 0 0 0.011951 -3.02215e-05 0 0.04 0.999903 6.55841e-05 6.2982e-05 -0 -5.7701e-07 0
82 3 16.2 0 0 0 0 0 0.011948 -2.99841e-05 0 0.04 0.999903 6.32675e-05 6.32602e-05 -0 -9.15648e-08 0
83 3 16.4 0 0 0 0 0 0.0120375 -4.97974e-05 0 0.04 0.999903 6.44025e-05 6.54611e-05 -0 -4.24581e-08 0
182 3 16.2 0.2 0 0 0 0 0.0119544 -4.85236e-05 0 0.04 0.999903 6.57e-05 6.34e-05 -0 6.73991e-08 0
183 3 16.4 0.2 0 0 0 0 0.0120418 -3.36247e-05 0 0.04 0.999903 6.54403e-05 6.32887e-05 -0 -7.1344e-07 0
282 3 16.2 0.4 0 0 0 0 0.0119503 -5.05868e-05 0 0.04 0.999903 6.5546e-05 6.57062e-05 -0 -1.21141e-07 0
283 3 16.4 0.4 0 0 0 0 0.0120486 -6.48162e-05 0 0.04 0.999903 6.51303e-05 6.53317e-05 -0 -5.86176e-09 0
84 3 16.6 0 0 0 0 0 0.0119932 -4.99416e-05 0 0.04 0.999903 4.36813e-05 6.33689e-05 -0 1.27347e-06 0
85 3 16.8 0 0 0 0 0 0.0120057 -3.41867e-05 0 0.04 0.999903 4.6157e-05 6.47501e-05 -0 3.24684e-07 0
86 3 17 0 0 0 0 0 0.0119953 -4.29023e-05 0 0.04 0.999903 4.6238e-05 6.44791e-05 -0 1.66399e-07 0
184 3 16.6 0.2 0 0 0 0 0.0120075 -5.00292e-05 0 0.04 0.999903 4.65452e-05 6.43637e-05 -0 -7.70931e-07 0
185 3 16.8 0.2 0 0 0 0 0.0120016 -5.44471e-05 0 0.04 0.999903 4.45296e-05 6.40118e-05 -0 -6.52268e-08 0
186 3 17 0.2 0 0 0 0 0.0119991 -5.25525e-05 0 0.04 0.999903 4.6768e-05 6.57159e-05 -0 -2.35155e-07 0
284 3 16.6 0.4 0 0 0 0 0.011985 -4.47129e-05 0 0.04 0.999903 4.68435e-05 6.39627e-05 -0 -8.9613e-07 0
285 3 16.8 0.4 0 0 0 0 0.0119992 -4.56654e-05 0 0.04 0.999903 4.37521e-05 6.51393e-05 -0 -4.86678e-07 0
286 3 17 0.4 0 0 0 0 0.0119955 -4.40814e-05 0 0.04 0.999903 4.65861e-05 6.61624e-05 -0 -1.17809e-06 0
87 3 17.2 0 0 0 0 0 0.0119477 -5.17922e-05 0 0.04 0.999903 6.59059e-05 6.52264e-05 -0 4.86329e-07 0
88 3 17.4 0 0 0 0 0 0.0120548 -3.72475e-05 0 0.04 0.999903 6.21534e-05 6.26755e-05 -0 4.29862e-08 0
187 3 17.2 0.2 0 0 0 0 0.0119438 -5.17958e-05 0 0.04 0.999903 6.34107e-05 6.39724e-05 -0 2.23054e-07 0
188 3 17.4 0.2 0 0 0 0 0.0120474 -4.99713e-05 0 0.04 0.999903 6.42548e-05 6.27684e-05 -0 7.21517e-07 0
287 3 17.2 0.4 0 0 0 0 0.011943 -3.30869e-05 0 0.04 0.999903 6.42339e-05 6.46158e-05 -0 1.1567e-06 0
288 3 17.4 0.4 0 0 0 0 0.0120581 -5.27666e-05 0 0.04 0.999903 6.40884e-05 6.37974e-05 -0 9.4255e-07 0
89 3 17.6 0 0 0 0 0 0.0119907 -5.57679e-05 0 0.04 0.999903 4.49116e-05 6.22745e-05 -0 -3.04678e-08 0
90 3 17.8 0 0 0 0 0 0.0119961 -3.31626e-05 0 0.04 0.999903 4.62283e-05 6.44522e-05 -0 2.7119e-07 0
91 3 18 0 0 0 0 0 0.0120129 -5.52762e-05 0 0.04 0.999903 4.55747e-05 6.49941e-05 -0 -1.92786e-07 0
189 3 17.6 0.2 0 0 0 0 0.0119968 -4.93064e-05 0 0.04 0.999903 4.62928e-05 6.56742e-05 -0 1.64001e-07 0
190 3 17.8 0.2 0 0 0 0 0.012013 -4.67559e-05 0 0.04 0.999903 4.45098e-05 6.40658e-05 -0 -6.38615e-07 0
191 3 18 0.2 0 0 0 0 0.0119984 -3.58178e-05 0 0.04 0.999903 4.63834e-05 6.376e-05 -0 1.28953e-07 0
289 3 17.6 0.4 0 0 0 0 0.0119986 -4.21945e-05 0 0.04 0.999903 4.5569e-05 6.38603e-05 -0 -7.92465e-07 0
290 3 17.8 0.4 0 0 0 0 0.012009 -4.68226e-05 0 0.04 0.999903 4.55001e-05 6.33279e-05 -0 5.54981e-07 0
291 3 18 0.4 0 0 0 0 0.0119901 -5.43082e-05 0 0.04 0.999903 4.67787e-05 6.73772e-05 -0 -1.0399e-06 0
92 3 18.2 0 0 0 0 0 0.011954 -4.89321e-05 0 0.04 0.999903 6.54577e-05 6.43083e-05 -0 2.88683e-07 0
93 3 18.4 0 0 0 0 0 0.0119952 -4.11677e-05 0 0.04 0.999903 4.62415e-05 6.59676e-05 -0 3.02638e-07 0
192 3 18.2 0.2 0 0 0 0 0.0119498 -4.09222e-05 0 0.04 0.999903 6.53862e-05 6.43265e-05 -0 -1.28916e-06 0
193 3 18.4 0.2 0 0 0 0 0.0120034 -3.31947e-05 0 0.04 0.999903 4.6976e-05 6.6546e-05 -0 1.404e-07 0
292 3 18.2 0.4 0 0 0 0 0.0119617 -5.52132e-05 0 0.04 0.999903 6.25069e-05 6.49686e-05 -0 7.64439e-07 0
293 3 18.4 0.4 0 0 0 0 0.0120148 -5.01571e-05 0 0.04 0.999903 4.64193e-05 6.51708e-05 -0 5.9362e-09 0
94 3 18.6 0 0 0 0 0 0.0119967 -4.7361e-05 0 0.04 0.999903 4.49768e-05 6.35785e-05 -0 1.24711e-07 0
95 3 18.8 0 0 0 0 0 0.0120037 -3.87386e-05 0 0.04 0.999903 4.57762e-05 6.28992e-05 -0 -1.52659e-07 0
96 3 19 0 0 0 0 0 0.012007 -5.36041e-05 0 0.04 0.999903 4.54699e-05 6.39247e-05 -0 -1.12385e-07 0
194 3 18.6 0.2 0 0 0 0 0.0119896 -4.5606e-05 0 0.04 0.999903 4.55313e-05 6.3337e-05 -0 -3.55514e-07 0
195 3 18.8 0.2 0 0 0 0 0.0119908 -3.80769e-05 0 0.04 0.999903 4.42834e-05 6.53174e-05 -0 -2.85013e-07 0
196 3 19 0.2 0 0 0 0 0.0120039 -3.96598e-05 0 0.04 0.999903 4.52795e-05 6.51323e-05 -0 3.37429e-07 0
294 3 18.6 0.4 0 0 0 0 0.0120035 -5.42981e-05 0 0.04 0.999903 4.59542e-05 6.38151e-05 -0 -5.60548e-08 0
295 3 18.8 0.4 0 0 0 0 0.0119959 -4.51557e-05 0 0.04 0.999903 4.45702e-05 6.51676e-05 -0 1.75632e-08 0
296 3 19 0.4 0 0 0 0 0.0119868 -6.19086e-05 0 0.04 0.999903 4.48441e-05 6.43744e-05 -0 1.54435e-07 0
97 3 19.2 0 0 0 0 0 0.0120538 -6.3222e-05 0 0.04 0.999903 6.35359e-05 6.21169e-05 -0 3.71534e-07 0
98 3 19.4 0 0 0 0 0 0.0120355 -4.78052e-05 0 0.04 0.999903 6.51344e-05 6.45069e-05 -0 3.57248e-07 0
197 3 19.2 0.2 0 0 0 0 0.0120508 -5.11499e-05 0 0.04 0.999903 6.34463e-05 6.30257e-05 -0 5.40486e-07 0
198 3 19.4 0.2 0 0 0 0 0.01205 -4.18708e-05 0 0.04 0.999903 6.39187e-05 6.27702e-05 -0 -1.7219e-07 0
297 3 19.2 0.4 0 0 0 0 0.0120601 -5.96754e-05 0 0.04 0.999903 6.45701e-05 6.46261e-05 -0 3.48559e-07 0
298 3 19.4 0.4 0 0 0 0 0.012055 -3.54867e-05 0 0.04 0.999903 6.34552e-05 6.51098e-05 -0 5.56122e-07 0