ITEM: TIMESTEP
0
ITEM: NUMBER OF ATOMS
2500
ITEM: BOX BOUNDS pp pp pp
0.0000000000000000e+00 1.0000000000000000e+01
0.0000000000000000e+00 1.0000000000000000e+01
0.0000000000000000e+00 2.0000000000000001e-01
ITEM: ATOMS id type x y z vx vy vz fx fy fz mass c_peratom[1] c_peratom[2]
1 1 0 0 0 0 0 0 -0.262837 -0.191409 0 0.04 -0.111252 -0.0149622
2 1 0.2 0 0 0 0 0 1.46337 -0.197458 0 0.04 -0.0114067 -0.168038
3 2 0.4 0 0 0 0 0 0.0754881 -0.139934 0 0.04 -0.251737 -0.47211
51 2 0 0.2 0 0 0 0 0.108468 -1.04525 0 0.04 -0.499013 -0.417118
52 1 0.2 0.2 0 0 0 0 -0.831605 -0.0727681 0 0.04 0.00220216 -0.191053
53 1 0.4 0.2 0 0 0 0 0.420724 -1.13771 0 0.04 -0.320316 -0.00897638
101 2 0 0.4 0 0 0 0 -0.114241 0.0474652 0 0.04 -0.519347 -0.720571
102 1 0.2 0.4 0 0 0 0 -0.891601 0.0938792 0 0.04 -0.0296191 -0.159232
103 1 0.4 0.4 0 0 0 0 0.768987 0.1866 0 0.04 -0.305849 -0.247344
4 1 0.6 0 0 0 0 0 -0.281113 0.0933443 0 0.04 0.0978331 -0.0924673
5 2 0.8 0 0 0 0 0 -0.264602 1.05878 0 0.04 -0.459436 -0.633033
54 1 0.6 0.2 0 0 0 0 -0.379441 0.383848 0 0.04 -0.194943 -0.132526
55 1 0.8 0.2 0 0 0 0 1.37242 -0.655721 0 0.04 0.00788818 -0.031829
104 1 0.6 0.4 0 0 0 0 -0.122707 0.292448 0 0.04 -0.183709 -0.294769
105 1 0.8 0.4 0 0 0 0 -0.0230198 0.243006 0 0.04 -0.110345 -0.25932
6 1 1 0 0 0 0 0 -1.40342 1.39051 0 0.04 -0.0499839 0.0208557
7 1 1.2 0 0 0 0 0 0.245761 -0.21435 0 0.04 -0.270146 -0.151503
8 1 1.4 0 0 0 0 0 -0.00391137 -1.6036 0 0.04 -0.243568 -0.073087
56 2 1 0.2 0 0 0 0 0.201509 -0.28795 0 0.04 -0.419839 -0.44739
57 1 1.2 0.2 0 0 0 0 -1.41807 0.359319 0 0.04 -0.0913529 -0.146475
58 1 1.4 0.2 0 0 0 0 1.38822 1.56788 0 0.04 -0.103741 -0.0269163
106 1 1 0.4 0 0 0 0 -0.371772 -1.16804 0 0.04 -0.188326 -0.0849646
107 1 1.2 0.4 0 0 0 0 1.02161 -0.0778687 0 0.04 -0.00343795 -0.191704
108 2 1.4 0.4 0 0 0 0 -0.0868343 0.065158 0 0.04 -0.400927 -0.415107
9 1 1.6 0 0 0 0 0 -1.2024 1.28213 0 0.04 -0.36621 -0.13848
10 1 1.8 0 0 0 0 0 0.582766 0.45047 0 0.04 -0.158804 -0.378887
59 2 1.6 0.2 0 0 0 0 1.05987 -0.239352 0 0.04 -0.230375 -0.391737
60 1 1.8 0.2 0 0 0 0 -0.770296 -0.133005 0 0.04 -0.0552208 -0.330482
109 1 1.6 0.4 0 0 0 0 -2.41776 -1.32665 0 0.04 -0.256466 -0.066984
110 1 1.8 0.4 0 0 0 0 0.209438 -0.193306 0 0.04 -0.273249 -0.283899
11 2 2 0 0 0 0 0 0.187534 0.0268181 0 0.04 -0.353561 -0.337469
12 1 2.2 0 0 0 0 0 -1.6536 -1.58948 0 0.04 -0.234776 -0.411868
13 1 2.4 0 0 0 0 0 1.68596 -0.763328 0 0.04 -0.421375 -0.491664
61 2 2 0.2 0 0 0 0 0.480861 0.231783 0 0.04 -0.290061 -0.345143
62 1 2.2 0.2 0 0 0 0 -1.6626 0.887976 0 0.04 -0.215596 -0.44283
63 1 2.4 0.2 0 0 0 0 0.476455 0.95917 0 0.04 -0.531096 -0.384011
111 2 2 0.4 0 0 0 0 -0.486313 0.176562 0 0.04 -0.384319 -0.468001
112 2 2.2 0.4 0 0 0 0 0.341218 -0.963242 0 0.04 -0.546802 -0.354366
113 2 2.4 0.4 0 0 0 0 -0.413352 -1.074 0 0.04 -0.356429 -0.337671
14 2 2.6 0 0 0 0 0 -1.43069 1.42376 0 0.04 -0.36838 -0.305345
15 2 2.8 0 0 0 0 0 1.2568 -1.52595 0 0.04 -0.498598 -0.36529
64 1 2.6 0.2 0 0 0 0 1.74196 -0.322174 0 0.04 -0.193512 -0.170265
65 2 2.8 0.2 0 0 0 0 -0.321595 1.36833 0 0.04 -0.3288 -0.291686
114 2 2.6 0.4 0 0 0 0 0.532327 -0.0436124 0 0.04 -0.331059 -0.219559
115 1 2.8 0.4 0 0 0 0 -0.26487 0.37963 0 0.04 -0.212172 -0.0769405
16 1 3 0 0 0 0 0 -0.666794 -0.821302 0 0.04 -0.224534 -0.178185
17 1 3.2 0 0 0 0 0 2.02748 -1.31516 0 0.04 -0.200593 -0.143294
18 2 3.4 0 0 0 0 0 -0.0150529 0.207753 0 0.04 -0.303827 -0.347108
66 1 3 0.2 0 0 0 0 -0.936753 0.131581 0 0.04 -0.255538 -0.449425
67 1 3.2 0.2 0 0 0 0 0.845564 0.212643 0 0.04 -0.33461 -0.360393
68 1 3.4 0.2 0 0 0 0 -0.144971 -0.110375 0 0.04 -0.272192 -0.0176602
116 1 3 0.4 0 0 0 0 0.246083 1.52756 0 0.04 -0.390675 -0.134017
117 1 3.2 0.4 0 0 0 0 1.75078 0.32717 0 0.04 -0.161116 -0.223829
118 2 3.4 0.4 0 0 0 0 0.160085 -1.50717 0 0.04 -0.321071 -0.509076
19 1 3.6 0 0 0 0 0 -0.113456 -0.448746 0 0.04 -0.0295398 -0.202447
20 2 3.8 0 0 0 0 0 -1.24521 0.614084 0 0.04 -0.459303 -0.443136
69 1 3.6 0.2 0 0 0 0 -0.190858 -0.158162 0 0.04 -0.210385 -0.183814
70 1 3.8 0.2 0 0 0 0 0.00167057 -0.172924 0 0.04 -0.300626 0.0736132
119 1 3.6 0.4 0 0 0 0 -0.326971 0.196219 0 0.04 0.0591092 -0.264262
120 2 3.8 0.4 0 0 0 0 0.0237345 0.024012 0 0.04 -0.275834 -0.209797
21 2 4 0 0 0 0 0 -9.2513e-06 0.657367 0 0.04 -0.707854 -0.45515
22 2 4.2 0 0 0 0 0 1.15693 0.622763 0 0.04 -0.476084 -0.456048
23 1 4.4 0 0 0 0 0 0.468366 -0.549881 0 0.04 0.0457255 -0.155295
71 1 4 0.2 0 0 0 0 0.0367588 -1.3441 0 0.04 -0.140694 0.00310366
72 1 4.2 0.2 0 0 0 0 0.137966 -0.00416803 0 0.04 -0.268816 0.121568
73 1 4.4 0.2 0 0 0 0 0.465598 0.147258 0 0.04 -0.157572 -0.0800795
121 1 4 0.4 0 0 0 0 0.218462 0.206056 0 0.04 0.0777554 -0.407856
122 2 4.2 0.4 0 0 0 0 -0.448916 -0.464635 0 0.04 -0.314333 -0.291845
123 1 4.4 0.4 0 0 0 0 0.363117 0.572542 0 0.04 0.0992947 -0.192255
24 2 4.6 0 0 0 0 0 -0.473848 0.222186 0 0.04 -0.428639 -0.416732
25 1 4.8 0 0 0 0 0 -1.08085 0.128867 0 0.04 -0.0158649 -0.17115
74 1 4.6 0.2 0 0 0 0 0.684294 0.0853797 0 0.04 -0.155619 0.16725
75 1 4.8 0.2 0 0 0 0 0.170274 0.0873085 0 0.04 -0.121496 -0.076864
124 2 4.6 0.4 0 0 0 0 -0.525119 -0.44958 0 0.04 -0.452942 -0.449065
125 1 4.8 0.4 0 0 0 0 -1.11715 0.0997025 0 0.04 -0.0140951 -0.140503
26 1 5 0 0 0 0 0 -0.363219 0.358892 0 0.04 -0.354708 -0.146039
27 1 5.2 0 0 0 0 0 0.51668 0.176562 0 0.04 -0.0785776 -0.165213
28 2 5.4 0 0 0 0 0 -1.00043 1.15256 0 0.04 -0.637736 -0.522098
76 1 5 0.2 0 0 0 0 -0.212872 0.116175 0 0.04 -0.309867 -0.148202
77 1 5.2 0.2 0 0 0 0 -0.583414 0.356497 0 0.04 -0.158161 -0.197011
78 1 5.4 0.2 0 0 0 0 -0.28983 0.382193 0 0.04 -0.0729624 0.0111571
126 1 5 0.4 0 0 0 0 -0.319046 -0.341017 0 0.04 -0.281971 -0.185876
127 1 5.2 0.4 0 0 0 0 0.721976 -0.499162 0 0.04 -0.0106335 -0.324926
128 2 5.4 0.4 0 0 0 0 0.328868 0.334093 0 0.04 -0.481028 -0.14263
29 2 5.6 0 0 0 0 0 1.50113 0.0726858 0 0.04 -0.503462 -0.432561
30 1 5.8 0 0 0 0 0 0.712658 -0.0614449 0 0.04 -0.0118674 -0.103015
79 1 5.6 0.2 0 0 0 0 -0.44729 -0.919971 0 0.04 -0.225884 -0.0978458
80 1 5.8 0.2 0 0 0 0 1.52093 -0.14362 0 0.04 -0.149252 -0.18034
129 1 5.6 0.4 0 0 0 0 -1.43752 -0.141489 0 0.04 -0.0968533 -0.455133
130 1 5.8 0.4 0 0 0 0 -0.00479829 -0.179868 0 0.04 -0.350237 -0.357561
31 2 6 0 0 0 0 0 -0.267658 -0.884799 0 0.04 -0.363857 -0.588131
32 1 6.2 0 0 0 0 0 -1.65042 -0.310743 0 0.04 -0.0738703 -0.203934
33 1 6.4 0 0 0 0 0 1.48186 -0.00854068 0 0.04 -0.189829 -0.224113
81 2 6 0.2 0 0 0 0 -0.17517 1.43229 0 0.04 -0.419046 -0.567646
82 1 6.2 0.2 0 0 0 0 -1.36703 1.05259 0 0.04 -0.00896892 -0.0372895
83 1 6.4 0.2 0 0 0 0 0.519443 0.118571 0 0.04 -0.271705 -0.154048
131 1 6 0.4 0 0 0 0 1.52295 -1.11738 0 0.04 -0.0100832 -0.101285
132 2 6.2 0.4 0 0 0 0 -0.288125 -1.57177 0 0.04 -0.496078 -0.578537
133 1 6.4 0.4 0 0 0 0 -0.8879 0.575262 0 0.04 -0.0308933 -0.145398
34 2 6.6 0 0 0 0 0 -1.00167 -0.457979 0 0.04 -0.489105 -0.41826
35 2 6.8 0 0 0 0 0 0.310711 -0.688885 0 0.04 -0.690264 -0.41444
84 1 6.6 0.2 0 0 0 0 0.164517 -1.04426 0 0.04 -0.223217 0.00893779
85 1 6.8 0.2 0 0 0 0 -0.125724 -0.931179 0 0.04 -0.115153 0.0182241
134 1 6.6 0.4 0 0 0 0 0.51123 0.698143 0 0.04 -0.237678 -0.199763
135 1 6.8 0.4 0 0 0 0 -0.151059 0.886042 0 0.04 -0.159975 -0.239716
36 2 7 0 0 0 0 0 1.75229 -0.927742 0 0.04 -0.381862 -0.36275
37 1 7.2 0 0 0 0 0 -0.136544 0.598453 0 0.04 -0.0700161 -0.219616
38 2 7.4 0 0 0 0 0 -1.78126 0.859841 0 0.04 -0.502602 -0.581225
86 1 7 0.2 0 0 0 0 -0.36853 -0.752943 0 0.04 -0.232936 -0.0715019
87 1 7.2 0.2 0 0 0 0 -0.495709 0.581563 0 0.04 -0.274078 -0.262175
88 1 7.4 0.2 0 0 0 0 1.55538 -0.682323 0 0.04 -0.0236736 -0.11044
136 1 7 0.4 0 0 0 0 -0.0512106 0.913648 0 0.04 -0.107796 -0.22262
137 1 7.2 0.4 0 0 0 0 -0.337368 2.20317 0 0.04 -0.15342 -0.105179
138 1 7.4 0.4 0 0 0 0 -0.252633 0.795982 0 0.04 -0.120669 -0.263047
39 2 7.6 0 0 0 0 0 1.22182 -1.57378 0 0.04 -0.539632 -0.618054
40 1 7.8 0 0 0 0 0 -0.663229 0.388536 0 0.04 -0.121166 -0.141206
89 2 7.6 0.2 0 0 0 0 -0.176859 0.857959 0 0.04 -0.463235 -0.523111
90 1 7.8 0.2 0 0 0 0 -1.13364 0.20525 0 0.04 -0.08065 -0.257308
139 1 7.6 0.4 0 0 0 0 -0.104021 -1.09762 0 0.04 -0.198176 -0.208532
140 1 7.8 0.4 0 0 0 0 -0.0015159 -0.351998 0 0.04 -0.157454 -0.323086
41 1 8 0 0 0 0 0 0.369741 -1.13516 0 0.04 -0.325421 -0.0894431
42 1 8.2 0 0 0 0 0 -0.445702 0.0236325 0 0.04 -0.265677 -0.215168
43 1 8.4 0 0 0 0 0 0.553057 1.17344 0 0.04 -0.2028 -0.104891
91 1 8 0.2 0 0 0 0 0.0367583 -0.0182377 0 0.04 -0.357286 -0.303082
92 1 8.2 0.2 0 0 0 0 1.12741 0.0738376 0 0.04 -0.105983 -0.220931
93 2 8.4 0.2 0 0 0 0 0.693616 -1.35898 0 0.04 -0.349066 -0.572825
141 1 8 0.4 0 0 0 0 -0.160838 0.875353 0 0.04 -0.270655 -0.155818
142 1 8.2 0.4 0 0 0 0 1.29126 -0.243309 0 0.04 -0.0468022 -0.173098
143 2 8.4 0.4 0 0 0 0 0.38255 1.02816 0 0.04 -0.334162 -0.543884
44 2 8.6 0 0 0 0 0 -0.586508 0.206113 0 0.04 -0.491725 -0.324984
45 2 8.8 0 0 0 0 0 1.41494 1.64939 0 0.04 -0.506155 -0.3759
94 1 8.6 0.2 0 0 0 0 -1.90804 -0.922608 0 0.04 -0.0678441 -0.0479857
95 1 8.8 0.2 0 0 0 0 0.126706 0.685482 0 0.04 -0.288052 -0.00752976
144 1 8.6 0.4 0 0 0 0 -0.539818 0.796362 0 0.04 0.0483263 -0.236064
145 2 8.8 0.4 0 0 0 0 -1.5949 -1.03541 0 0.04 -0.438184 -0.297723
46 1 9 0 0 0 0 0 -0.492753 -1.24123 0 0.04 -0.0761971 -0.213568
47 1 9.2 0 0 0 0 0 1.29882 1.62997 0 0.04 -0.260415 -0.142262
48 1 9.4 0 0 0 0 0 0.643638 0.419015 0 0.04 -0.256667 -0.179846
96 1 9 0.2 0 0 0 0 1.93995 2.0635 0 0.04 -0.0530958 -0.150282
97 2 9.2 0.2 0 0 0 0 -1.00059 -0.26349 0 0.04 -0.374821 -0.355466
98 1 9.4 0.2 0 0 0 0 -0.867795 -0.32807 0 0.04 -0.121425 -0.181242
146 2 9 0.4 0 0 0 0 1.09004 -0.167095 0 0.04 -0.54871 -0.31748
147 1 9.2 0.4 0 0 0 0 -0.91549 -2.00444 0 0.04 -0.0780133 -0.179128
148 1 9.4 0.4 0 0 0 0 0.124162 -1.33746 0 0.04 -0.317096 -0.332822
49 1 9.6 0 0 0 0 0 -0.415444 0.107317 0 0.04 -0.294454 -0.204072
50 1 9.8 0 0 0 0 0 -0.403688 0.00711326 0 0.04 -0.106149 -0.259003
99 1 9.6 0.2 0 0 0 0 -0.540993 -0.593082 0 0.04 -0.338076 -0.218613
100 1 9.8 0.2 0 0 0 0 0.812622 -0.508222 0 0.04 0.00861373 -0.290395
149 1 9.6 0.4 0 0 0 0 -0.450136 -0.976979 0 0.04 -0.36709 -0.299515
150 1 9.8 0.4 0 0 0 0 1.30017 0.729402 0 0.04 0.00937308 -0.0567152
151 2 0 0.6 0 0 0 0 0.728251 1.0369 0 0.04 -0.555594 -0.550028
152 1 0.2 0.6 0 0 0 0 -0.809209 0.176849 0 0.04 -0.118043 -0.141902
153 1 0.4 0.6 0 0 0 0 0.650668 -0.0215202 0 0.04 -0.243027 -0.156261
201 1 0 0.8 0 0 0 0 0.924895 -0.988374 0 0.04 -0.297793 -0.117375
202 1 0.2 0.8 0 0 0 0 0.0527479 0.247043 0 0.04 -0.315281 -0.200461
203 1 0.4 0.8 0 0 0 0 1.56165 0.0409669 0 0.04 -0.0210352 -0.114898
154 1 0.6 0.6 0 0 0 0 0.0249686 0.959965 0 0.04 -0.116212 -0.0496873
155 1 0.8 0.6 0 0 0 0 -0.293188 -0.120346 0 0.04 -0.145409 -0.204781
204 2 0.6 0.8 0 0 0 0 0.0105988 -1.07829 0 0.04 -0.521149 -0.650765
205 1 0.8 0.8 0 0 0 0 -1.58739 -0.130438 0 0.04 -0.0284424 -0.0750532
156 1 1 0.6 0 0 0 0 -0.0980246 0.207356 0 0.04 -0.195573 -0.199649
157 1 1.2 0.6 0 0 0 0 -0.114907 1.30425 0 0.04 -0.109853 -0.0629826
158 1 1.4 0.6 0 0 0 0 -0.349607 -1.36328 0 0.04 -0.164243 -0.10684
206 1 1 0.8 0 0 0 0 1.45199 -0.223608 0 0.04 -0.136879 -0.128246
207 2 1.2 0.8 0 0 0 0 0.191268 -0.0625929 0 0.04 -0.472397 -0.421647
208 1 1.4 0.8 0 0 0 0 -1.77323 1.24531 0 0.04 -0.059324 -0.118033
159 1 1.6 0.6 0 0 0 0 -1.03541 -0.221845 0 0.04 -0.432757 -0.335346
160 1 1.8 0.6 0 0 0 0 0.233825 0.0581439 0 0.04 -0.295513 -0.402817
209 1 1.6 0.8 0 0 0 0 -0.768234 0.0116627 0 0.04 -0.424461 -0.289272
210 1 1.8 0.8 0 0 0 0 0.57691 1.33091 0 0.04 -0.21422 -0.220877
161 2 2 0.6 0 0 0 0 -0.242445 0.0855405 0 0.04 -0.386524 -0.440239
162 2 2.2 0.6 0 0 0 0 0.0965944 1.15141 0 0.04 -0.581387 -0.413296
163 2 2.4 0.6 0 0 0 0 0.708261 0.0207991 0 0.04 -0.246664 -0.57121
211 2 2 0.8 0 0 0 0 0.965458 -0.573226 0 0.04 -0.305954 -0.443223
212 1 2.2 0.8 0 0 0 0 0.0291393 -0.53853 0 0.04 -0.0474487 -0.303236
213 2 2.4 0.8 0 0 0 0 -0.708377 0.240765 0 0.04 -0.130883 -0.290947
164 1 2.6 0.6 0 0 0 0 0.521403 -1.13808 0 0.04 -0.163615 -0.196037
165 2 2.8 0.6 0 0 0 0 -2.35162 -0.0576127 0 0.04 -0.337408 -0.254337
214 1 2.6 0.8 0 0 0 0 -0.969267 1.89211 0 0.04 -0.23531 -0.279669
215 1 2.8 0.8 0 0 0 0 1.03469 -1.00046 0 0.04 -0.299096 -0.188694
166 2 3 0.6 0 0 0 0 1.02376 -0.194782 0 0.04 -0.363447 -0.335117
167 1 3.2 0.6 0 0 0 0 0.530663 -0.0325845 0 0.04 0.010333 -0.148336
168 2 3.4 0.6 0 0 0 0 0.0970452 1.21384 0 0.04 -0.282392 -0.581401
216 1 3 0.8 0 0 0 0 0.39095 0.0493122 0 0.04 -0.276351 0.0122469
217 1 3.2 0.8 0 0 0 0 0.19723 0.28335 0 0.04 -0.220207 -0.216451
218 1 3.4 0.8 0 0 0 0 -0.121425 -1.01548 0 0.04 -0.334156 -0.130003
169 1 3.6 0.6 0 0 0 0 -1.61799 -0.0999232 0 0.04 -0.0759526 -0.158465
170 1 3.8 0.6 0 0 0 0 0.177837 0.0408248 0 0.04 -0.258842 0.0307501
219 1 3.6 0.8 0 0 0 0 0.620927 0.128269 0 0.04 -0.135323 -0.262605
220 2 3.8 0.8 0 0 0 0 -1.51517 -0.381835 0 0.04 -0.571892 -0.370737
171 1 4 0.6 0 0 0 0 0.209068 1.07137 0 0.04 -0.117982 -0.0941226
172 1 4.2 0.6 0 0 0 0 0.580327 -1.20374 0 0.04 -0.235376 -0.0809708
173 1 4.4 0.6 0 0 0 0 0.480654 -0.00703052 0 0.04 -0.180272 -0.136991
221 2 4 0.8 0 0 0 0 0.97068 -1.723 0 0.04 -0.61434 -0.546769
222 1 4.2 0.8 0 0 0 0 -0.659507 0.499862 0 0.04 -0.0538373 -0.153122
223 1 4.4 0.8 0 0 0 0 0.538234 0.313633 0 0.04 -0.298701 -0.173093
174 1 4.6 0.6 0 0 0 0 0.166375 -1.28345 0 0.04 -0.147133 -0.0260867
175 1 4.8 0.6 0 0 0 0 -0.378101 -0.579293 0 0.04 -0.168305 -0.189038
224 1 4.6 0.8 0 0 0 0 -0.0991669 0.287185 0 0.04 -0.166326 -0.152484
225 1 4.8 0.8 0 0 0 0 -0.851848 1.01719 0 0.04 -0.235974 -0.0430219
176 1 5 0.6 0 0 0 0 -0.493571 -0.662148 0 0.04 -0.263275 -0.236088
177 1 5.2 0.6 0 0 0 0 -0.425042 0.464271 0 0.04 -0.156049 -0.0889681
178 1 5.4 0.6 0 0 0 0 -0.175045 -0.515797 0 0.04 -0.123605 0.0548083
226 1 5 0.8 0 0 0 0 0.59611 -0.428185 0 0.04 -0.0707608 -0.157655
227 2 5.2 0.8 0 0 0 0 -0.941884 -1.00213 0 0.04 -0.482061 -0.556872
228 2 5.4 0.8 0 0 0 0 0.184033 -0.193864 0 0.04 -0.67018 -0.464161
179 1 5.6 0.6 0 0 0 0 0.230835 1.07767 0 0.04 -0.196961 -0.0468783
180 1 5.8 0.6 0 0 0 0 -0.0831715 1.5606 0 0.04 -0.345243 -0.0879731
229 2 5.6 0.8 0 0 0 0 -0.716022 -0.101135 0 0.04 -0.591904 -0.47265
230 2 5.8 0.8 0 0 0 0 1.02866 -0.0946513 0 0.04 -0.439987 -0.443686
181 1 6 0.6 0 0 0 0 1.60543 0.290038 0 0.04 -0.0203365 -0.202872
182 2 6.2 0.6 0 0 0 0 -0.574067 0.988218 0 0.04 -0.479094 -0.570735
183 1 6.4 0.6 0 0 0 0 -0.889742 0.261669 0 0.04 0.0448773 -0.0808071
231 1 6 0.8 0 0 0 0 -0.839088 0.0984293 0 0.04 -0.0463196 -0.203994
232 1 6.2 0.8 0 0 0 0 0.728325 -0.952492 0 0.04 -0.142566 -0.0667186
233 1 6.4 0.8 0 0 0 0 0.486991 0.333393 0 0.04 -0.0867554 -0.110073
184 1 6.6 0.6 0 0 0 0 0.626861 0.360493 0 0.04 -0.195578 -0.0845777
185 1 6.8 0.6 0 0 0 0 -0.263728 0.238394 0 0.04 -0.153634 -0.0896194
234 1 6.6 0.8 0 0 0 0 0.338922 0.229858 0 0.04 -0.127475 -0.061506
235 1 6.8 0.8 0 0 0 0 -0.336022 0.0224037 0 0.04 -0.120067 -0.0730812
186 1 7 0.6 0 0 0 0 1.1213 0.155056 0 0.04 0.0865952 -0.0970318
187 2 7.2 0.6 0 0 0 0 0.205334 -0.146397 0 0.04 -0.523497 -0.473251
188 1 7.4 0.6 0 0 0 0 -1.88644 0.15805 0 0.04 -0.0512869 -0.192247
236 1 7 0.8 0 0 0 0 -0.265552 -0.318851 0 0.04 -0.0320301 -0.114217
237 1 7.2 0.8 0 0 0 0 -0.176468 -1.65008 0 0.04 -0.0644908 -0.0131402
238 1 7.4 0.8 0 0 0 0 -0.700361 -0.3215 0 0.04 -0.242598 -0.135864
189 1 7.6 0.6 0 0 0 0 -0.530837 0.00766006 0 0.04 -0.26985 -0.240977
190 1 7.8 0.6 0 0 0 0 1.26049 1.04754 0 0.04 0.0175205 -0.0849721
239 1 7.6 0.8 0 0 0 0 0.68915 0.145648 0 0.04 -0.133128 -0.124614
240 2 7.8 0.8 0 0 0 0 -1.12459 -1.21103 0 0.04 -0.650801 -0.623251
191 2 8 0.6 0 0 0 0 0.0556093 -1.10898 0 0.04 -0.443894 -0.558283
192 1 8.2 0.6 0 0 0 0 -1.05625 -0.0179506 0 0.04 -0.0652427 -0.164408
193 1 8.4 0.6 0 0 0 0 0.227513 -1.02573 0 0.04 -0.291586 -0.130152
241 2 8 0.8 0 0 0 0 1.24049 1.2771 0 0.04 -0.631792 -0.609044
242 1 8.2 0.8 0 0 0 0 -0.891405 -0.0435411 0 0.04 -0.162419 -0.197127
243 1 8.4 0.8 0 0 0 0 0.556662 0.304348 0 0.04 -0.26375 -0.26381
194 1 8.6 0.6 0 0 0 0 -0.13088 0.249149 0 0.04 -0.194638 -0.286207
195 1 8.8 0.6 0 0 0 0 -0.105731 -1.21334 0 0.04 -0.2584 -0.147268
244 1 8.6 0.8 0 0 0 0 -0.0858017 1.47289 0 0.04 -0.179532 -0.164378
245 1 8.8 0.8 0 0 0 0 -0.838939 0.176685 0 0.04 -0.30354 -0.31157
196 1 9 0.6 0 0 0 0 -0.606715 -1.50472 0 0.04 -0.228196 -0.164672
197 1 9.2 0.6 0 0 0 0 -0.340618 0.599252 0 0.04 -0.235736 -0.247777
198 1 9.4 0.6 0 0 0 0 -0.0807991 0.265452 0 0.04 -0.308366 -0.252984
246 1 9 0.8 0 0 0 0 0.465205 -0.127296 0 0.04 -0.239928 -0.342047
247 2 9.2 0.8 0 0 0 0 -0.452908 -0.681444 0 0.04 -0.433252 -0.393371
248 2 9.4 0.8 0 0 0 0 0.235378 -0.526539 0 0.04 -0.641421 -0.437212
199 1 9.6 0.6 0 0 0 0 1.16387 0.286451 0 0.04 -0.215432 -0.184481
200 2 9.8 0.6 0 0 0 0 -1.69962 0.353744 0 0.04 -0.529405 -0.375498
249 2 9.6 0.8 0 0 0 0 0.663755 -0.653914 0 0.04 -0.406968 -0.470782
250 1 9.8 0.8 0 0 0 0 -0.245708 -1.38466 0 0.04 -0.166776 -0.118491
251 1 0 1 0 0 0 0 1.06109 0.121753 0 0.04 -0.372741 -0.38269
252 1 0.2 1 0 0 0 0 -0.163303 -0.20581 0 0.04 -0.30832 -0.305063
253 1 0.4 1 0 0 0 0 1.28634 -0.490452 0 0.04 0.0122725 -0.196211
301 1 0 1.2 0 0 0 0 0.797745 1.44759 0 0.04 -0.293801 -0.0275968
302 1 0.2 1.2 0 0 0 0 -0.402677 1.24368 0 0.04 -0.233062 -0.000792284
303 1 0.4 1.2 0 0 0 0 0.0489509 0.0185771 0 0.04 -0.123796 -0.142728
351 2 0 1.4 0 0 0 0 -1.71837 0.0171796 0 0.04 -0.512414 -0.472013
352 2 0.2 1.4 0 0 0 0 1.60649 0.0632092 0 0.04 -0.515071 -0.506495
353 1 0.4 1.4 0 0 0 0 0.063169 -0.0301103 0 0.04 0.0859219 -0.184452
254 2 0.6 1 0 0 0 0 -0.0533883 1.67104 0 0.04 -0.524539 -0.582446
255 1 0.8 1 0 0 0 0 -1.40793 -0.18975 0 0.04 -0.0494586 -0.125002
304 1 0.6 1.2 0 0 0 0 0.266437 0.117632 0 0.04 -0.121665 0.0702294
305 1 0.8 1.2 0 0 0 0 -0.131666 0.102233 0 0.04 -0.197728 -0.174917
354 2 0.6 1.4 0 0 0 0 -0.316785 0.124582 0 0.04 -0.413811 -0.323285
355 1 0.8 1.4 0 0 0 0 -1.43481 -0.347199 0 0.04 -0.109219 -0.272303
256 1 1 1 0 0 0 0 0.0200022 -0.254111 0 0.04 -0.322698 -0.149166
257 1 1.2 1 0 0 0 0 0.932555 -1.92853 0 0.04 -0.0318634 -0.0955139
258 2 1.4 1 0 0 0 0 0.721091 0.967052 0 0.04 -0.354356 -0.298241
306 1 1 1.2 0 0 0 0 -0.210142 0.165754 0 0.04 -0.331532 -0.206488
307 1 1.2 1.2 0 0 0 0 -0.488242 1.35926 0 0.04 -0.194179 -0.0512014
308 1 1.4 1.2 0 0 0 0 -0.755574 0.0390464 0 0.04 -0.254089 0.0758633
356 1 1 1.4 0 0 0 0 1.14787 -0.365021 0 0.04 -0.17031 -0.224449
357 2 1.2 1.4 0 0 0 0 -0.685167 -0.0245116 0 0.04 -0.476189 -0.39709
358 2 1.4 1.4 0 0 0 0 0.802459 -0.364424 0 0.04 -0.591595 -0.409861
259 1 1.6 1 0 0 0 0 -0.785101 -0.866642 0 0.04 -0.143117 -0.362826
260 2 1.8 1 0 0 0 0 -1.35563 0.374386 0 0.04 -0.457586 -0.236777
309 1 1.6 1.2 0 0 0 0 -0.605702 1.0664 0 0.04 -0.321636 -0.0733766
310 1 1.8 1.2 0 0 0 0 1.64676 -0.0104764 0 0.04 -0.0971303 -0.0148749
359 2 1.6 1.4 0 0 0 0 0.0583962 -0.817016 0 0.04 -0.591437 -0.398616
360 2 1.8 1.4 0 0 0 0 0.805979 -2.14868 0 0.04 -0.527786 -0.496836
261 2 2 1 0 0 0 0 1.52119 -0.678834 0 0.04 -0.467594 -0.460507
262 1 2.2 1 0 0 0 0 -1.29398 1.11062 0 0.04 -0.24774 -0.391706
263 1 2.4 1 0 0 0 0 2.13893 -0.210481 0 0.04 -0.284152 -0.259047
311 2 2 1.2 0 0 0 0 -0.457195 0.894245 0 0.04 -0.35741 -0.419244
312 1 2.2 1.2 0 0 0 0 -1.17909 0.816948 0 0.04 -0.29891 -0.329795
313 1 2.4 1.2 0 0 0 0 1.45702 0.417189 0 0.04 -0.257649 -0.330667
361 1 2 1.4 0 0 0 0 -0.609146 -0.440518 0 0.04 -0.119227 -0.124537
362 1 2.2 1.4 0 0 0 0 0.219383 0.288765 0 0.04 -0.43466 -0.276192
363 1 2.4 1.4 0 0 0 0 -0.39594 0.2106 0 0.04 -0.347365 -0.274311
264 2 2.6 1 0 0 0 0 0.322933 -1.7299 0 0.04 -0.285715 -0.333405
265 1 2.8 1 0 0 0 0 0.132469 0.016547 0 0.04 0.0508484 -0.459293
314 2 2.6 1.2 0 0 0 0 0.558552 1.37149 0 0.04 -0.311433 -0.394664
315 1 2.8 1.2 0 0 0 0 -1.57405 0.56339 0 0.04 -0.0712726 -0.195139
364 1 2.6 1.4 0 0 0 0 0.267436 -0.0215644 0 0.04 -0.187401 -0.0379296
365 2 2.8 1.4 0 0 0 0 -0.455834 0.126171 0 0.04 -0.451313 -0.294521
266 2 3 1 0 0 0 0 -0.816193 0.506411 0 0.04 -0.308784 -0.108074
267 1 3.2 1 0 0 0 0 -1.00186 -0.381408 0 0.04 -0.121396 -0.420469
268 1 3.4 1 0 0 0 0 0.26964 0.212179 0 0.04 -0.299958 -0.307545
316 1 3 1.2 0 0 0 0 0.609955 -0.772599 0 0.04 -0.255318 -0.0768452
317 1 3.2 1.2 0 0 0 0 0.426778 0.351637 0 0.04 -0.270752 -0.159316
318 1 3.4 1.2 0 0 0 0 1.94224 -0.385801 0 0.04 -0.159813 -0.224264
366 2 3 1.4 0 0 0 0 -0.605212 -1.08419 0 0.04 -0.629123 -0.43906
367 2 3.2 1.4 0 0 0 0 0.502045 -1.17027 0 0.04 -0.436368 -0.533059
368 1 3.4 1.4 0 0 0 0 -0.452332 -0.29105 0 0.04 -0.212775 -0.115049
269 1 3.6 1 0 0 0 0 -0.456502 1.66014 0 0.04 -0.256922 -0.0814707
270 1 3.8 1 0 0 0 0 1.26847 -1.01178 0 0.04 0.051103 -0.0152974
319 2 3.6 1.2 0 0 0 0 0.139955 -0.0335562 0 0.04 -0.334127 -0.353115
320 1 3.8 1.2 0 0 0 0 -1.35242 0.29732 0 0.04 0.0352295 -0.295913
369 1 3.6 1.4 0 0 0 0 0.603669 -1.34489 0 0.04 -0.288849 -0.00180627
370 1 3.8 1.4 0 0 0 0 -0.235796 1.2692 0 0.04 -0.148349 -0.109062
271 2 4 1 0 0 0 0 -0.444081 1.13786 0 0.04 -0.497074 -0.60155
272 1 4.2 1 0 0 0 0 -0.772953 0.288032 0 0.04 -0.0249483 -0.111231
273 1 4.4 1 0 0 0 0 0.313642 0.194829 0 0.04 -0.293978 -0.104723
321 1 4 1.2 0 0 0 0 0.612171 -0.978101 0 0.04 -0.147333 -0.17734
322 1 4.2 1.2 0 0 0 0 0.350552 -0.0431283 0 0.04 -0.14356 -0.237654
323 1 4.4 1.2 0 0 0 0 0.0760629 -0.125008 0 0.04 -0.205547 -0.185893
371 1 4 1.4 0 0 0 0 -0.033915 -0.237211 0 0.04 -0.163676 -0.340473
372 1 4.2 1.4 0 0 0 0 0.592918 -0.572303 0 0.04 -0.14691 -0.284604
373 1 4.4 1.4 0 0 0 0 0.181431 0.852842 0 0.04 -0.149445 -0.0517126
274 1 4.6 1 0 0 0 0 0.878607 -0.0535743 0 0.04 -0.0655113 -0.0901369
275 2 4.8 1 0 0 0 0 0.879063 -0.129995 0 0.04 -0.400469 -0.53052
324 1 4.6 1.2 0 0 0 0 -0.375311 -0.221105 0 0.04 -0.180452 -0.11798
325 1 4.8 1.2 0 0 0 0 0.817235 -1.06686 0 0.04 -0.00234256 0.0171478
374 1 4.6 1.4 0 0 0 0 -0.393949 -0.0293037 0 0.04 -0.151163 -0.19074
375 1 4.8 1.4 0 0 0 0 0.129543 0.0518864 0 0.04 -0.109261 -0.239571
276 1 5 1 0 0 0 0 -0.493572 1.46879 0 0.04 0.12232 0.0626127
277 2 5.2 1 0 0 0 0 -0.0102035 0.914721 0 0.04 -0.390548 -0.634992
278 1 5.4 1 0 0 0 0 -1.13444 -0.936082 0 0.04 -0.0885595 -0.00211637
326 2 5 1.2 0 0 0 0 0.257655 -0.527717 0 0.04 -0.50801 -0.453269
327 1 5.2 1.2 0 0 0 0 -1.20815 -0.237582 0 0.04 -0.0210315 -0.107801
328 1 5.4 1.2 0 0 0 0 0.218417 0.966876 0 0.04 -0.22619 -0.317079
376 1 5 1.4 0 0 0 0 0.108469 -0.783942 0 0.04 -0.101582 -0.116928
377 1 5.2 1.4 0 0 0 0 -0.0492484 0.57437 0 0.04 -0.121436 -0.222873
378 1 5.4 1.4 0 0 0 0 0.258976 0.640657 0 0.04 -0.154963 -0.190164
279 1 5.6 1 0 0 0 0 0.500679 -1.00999 0 0.04 -0.272002 -0.0119022
280 1 5.8 1 0 0 0 0 0.39679 -0.958584 0 0.04 -0.172841 -0.0104268
329 1 5.6 1.2 0 0 0 0 -0.0158023 0.793641 0 0.04 -0.255581 -0.361897
330 1 5.8 1.2 0 0 0 0 1.45336 0.255489 0 0.04 -0.000419014 -0.323722
379 1 5.6 1.4 0 0 0 0 -0.461591 1.52395 0 0.04 -0.184354 -0.0338278
380 1 5.8 1.4 0 0 0 0 -0.224031 -0.0267296 0 0.04 -0.0968787 -0.128257
281 1 6 1 0 0 0 0 0.303452 1.6589 0 0.04 -0.128333 -0.0527933
282 1 6.2 1 0 0 0 0 0.468958 0.454609 0 0.04 -0.104371 -0.205808
283 1 6.4 1 0 0 0 0 0.534126 0.0385186 0 0.04 -0.116909 -0.174862
331 2 6 1.2 0 0 0 0 -0.196301 0.244788 0 0.04 -0.488436 -0.320414
332 1 6.2 1.2 0 0 0 0 -1.12246 -0.688911 0 0.04 0.0236958 -0.262703
333 1 6.4 1.2 0 0 0 0 0.368312 -0.962527 0 0.04 -0.162157 -0.259568
381 1 6 1.4 0 0 0 0 -0.315844 -0.681796 0 0.04 -0.197722 0.0667505
382 1 6.2 1.4 0 0 0 0 -0.318298 -1.07581 0 0.04 -0.141334 -0.235691
383 1 6.4 1.4 0 0 0 0 0.565457 0.170275 0 0.04 -0.187989 -0.124732
284 1 6.6 1 0 0 0 0 0.0162066 -0.185429 0 0.04 -0.0982885 -0.118266
285 1 6.8 1 0 0 0 0 -0.501518 -0.447182 0 0.04 -0.117398 -0.140209
334 1 6.6 1.2 0 0 0 0 -0.080389 -0.98098 0 0.04 -0.158823 -0.209527
335 1 6.8 1.2 0 0 0 0 -0.264632 -0.514799 0 0.04 -0.145218 -0.116844
384 1 6.6 1.4 0 0 0 0 -0.00463391 0.510411 0 0.04 -0.204202 -0.0387515
385 1 6.8 1.4 0 0 0 0 1.39226 -0.343208 0 0.04 -0.0575981 -0.113039
286 1 7 1 0 0 0 0 -0.250496 -0.241956 0 0.04 -0.0350411 -0.176439
287 1 7.2 1 0 0 0 0 -0.0413642 1.27277 0 0.04 -0.0777432 -0.050742
288 1 7.4 1 0 0 0 0 -0.60987 0.183482 0 0.04 -0.253469 -0.151539
336 1 7 1.2 0 0 0 0 1.23518 1.1076 0 0.04 0.0784104 0.0631866
337 2 7.2 1.2 0 0 0 0 0.0658131 0.00984653 0 0.04 -0.513657 -0.531609
338 1 7.4 1.2 0 0 0 0 -1.68499 -0.0835816 0 0.04 -0.13318 -0.125422
386 2 7 1.4 0 0 0 0 -0.331987 0.167633 0 0.04 -0.483471 -0.534284
387 1 7.2 1.4 0 0 0 0 -1.2784 -1.21394 0 0.04 0.0211809 0.0865913
388 1 7.4 1.4 0 0 0 0 -0.465651 -0.0501128 0 0.04 -0.303193 -0.086439
289 1 7.6 1 0 0 0 0 0.864165 -0.111772 0 0.04 -0.0959934 -0.182444
290 2 7.8 1 0 0 0 0 0.273765 1.37999 0 0.04 -0.50867 -0.484505
339 1 7.6 1.2 0 0 0 0 -0.218945 0.015468 0 0.04 -0.2151 -0.218552
340 1 7.8 1.2 0 0 0 0 -0.413515 0.0619805 0 0.04 -0.124724 -0.103633
389 1 7.6 1.4 0 0 0 0 0.903927 0.0494269 0 0.04 -0.0806467 -0.209842
390 2 7.8 1.4 0 0 0 0 0.558242 -1.00701 0 0.04 -0.457432 -0.402932
291 1 8 1 0 0 0 0 -1.22119 -1.31051 0 0.04 0.00861364 -0.148511
292 1 8.2 1 0 0 0 0 0.343816 -0.0969811 0 0.04 -0.359811 -0.256338
293 1 8.4 1 0 0 0 0 1.767 -0.0895411 0 0.04 -0.065606 -0.183819
341 1 8 1.2 0 0 0 0 0.238354 0.281688 0 0.04 -0.133194 -0.337785
342 1 8.2 1.2 0 0 0 0 0.210702 1.48977 0 0.04 -0.366016 -0.116329
343 1 8.4 1.2 0 0 0 0 1.2972 -0.202076 0 0.04 -0.0102521 -0.133711
391 1 8 1.4 0 0 0 0 0.238262 -0.413557 0 0.04 0.126823 -0.314189
392 2 8.2 1.4 0 0 0 0 -0.402737 0.401641 0 0.04 -0.226402 -0.349429
393 1 8.4 1.4 0 0 0 0 -1.1708 0.0680754 0 0.04 -0.0219453 -0.171108
294 2 8.6 1 0 0 0 0 0.0790953 -1.12622 0 0.04 -0.445696 -0.58666
295 1 8.8 1 0 0 0 0 -2.36835 -0.0805745 0 0.04 -0.212389 -0.161146
344 2 8.6 1.2 0 0 0 0 -0.0668418 1.71399 0 0.04 -0.436308 -0.583978
345 1 8.8 1.2 0 0 0 0 -2.15984 -0.134161 0 0.04 -0.227952 -0.147744
394 1 8.6 1.4 0 0 0 0 0.23564 0.292949 0 0.04 -0.176042 0.0754839
395 1 8.8 1.4 0 0 0 0 -0.63393 0.365681 0 0.04 -0.313233 -0.201805
296 1 9 1 0 0 0 0 0.469154 -0.262617 0 0.04 -0.326368 -0.20878
297 2 9.2 1 0 0 0 0 -0.0185986 0.56318 0 0.04 -0.398357 -0.591113
298 2 9.4 1 0 0 0 0 -0.024698 1.76677 0 0.04 -0.723091 -0.478658
346 1 9 1.2 0 0 0 0 0.677446 0.438045 0 0.04 -0.305132 -0.207402
347 2 9.2 1.2 0 0 0 0 1.00646 -0.910554 0 0.04 -0.321761 -0.573291
348 1 9.4 1.2 0 0 0 0 0.0311556 1.07489 0 0.04 0.131475 -0.0569087
396 1 9 1.4 0 0 0 0 0.806989 0.308773 0 0.04 -0.226692 -0.289402
397 2 9.2 1.4 0 0 0 0 -0.689236 0.444467 0 0.04 -0.534357 -0.337094
398 2 9.4 1.4 0 0 0 0 1.18797 -1.06804 0 0.04 -0.570838 -0.190632
299 2 9.6 1 0 0 0 0 0.123266 -0.00470505 0 0.04 -0.376529 -0.577688
300 1 9.8 1 0 0 0 0 -0.26605 0.442796 0 0.04 -0.220541 -0.327909
349 2 9.6 1.2 0 0 0 0 -1.08595 0.474991 0 0.04 -0.223632 -0.405596
350 1 9.8 1.2 0 0 0 0 -0.316235 0.354633 0 0.04 -0.219327 -0.248193
399 1 9.6 1.4 0 0 0 0 -0.682307 -0.355065 0 0.04 -0.237166 -0.22402
400 1 9.8 1.4 0 0 0 0 1.76145 0.198499 0 0.04 -0.187006 -0.226596
401 1 0 1.6 0 0 0 0 -0.00134574 -1.03321 0 0.04 -0.123546 0.0402189
402 1 0.2 1.6 0 0 0 0 -0.342221 -1.3371 0 0.04 -0.237087 -0.00437427
403 1 0.4 1.6 0 0 0 0 -0.0132907 -0.175937 0 0.04 -0.169473 -0.185628
451 1 0 1.8 0 0 0 0 -1.58699 0.603219 0 0.04 -0.00355604 -0.216678
452 1 0.2 1.8 0 0 0 0 -0.447774 0.259563 0 0.04 -0.301227 -0.292884
453 1 0.4 1.8 0 0 0 0 0.950051 -0.038316 0 0.04 -0.0702792 -0.306711
404 1 0.6 1.6 0 0 0 0 -0.126612 -0.548955 0 0.04 -0.202764 -0.00556694
405 1 0.8 1.6 0 0 0 0 -0.199402 -0.649135 0 0.04 -0.184577 -0.266704
454 2 0.6 1.8 0 0 0 0 0.746584 -0.729964 0 0.04 -0.342216 -0.398159
455 1 0.8 1.8 0 0 0 0 -0.0225828 -0.721522 0 0.04 0.106202 -0.32346
406 1 1 1.6 0 0 0 0 0.253932 0.734776 0 0.04 -0.261519 -0.135371
407 1 1.2 1.6 0 0 0 0 -0.181601 -1.4084 0 0.04 -0.219993 -0.0818726
408 1 1.4 1.6 0 0 0 0 -0.378148 -1.10369 0 0.04 -0.277879 -0.0680218
456 2 1 1.8 0 0 0 0 -0.646615 -0.568986 0 0.04 -0.321875 -0.381523
457 1 1.2 1.8 0 0 0 0 -1.17452 -0.0734516 0 0.04 -0.100805 -0.373861
458 1 1.4 1.8 0 0 0 0 0.299596 0.298578 0 0.04 -0.317093 -0.44714
409 1 1.6 1.6 0 0 0 0 1.45799 -0.736121 0 0.04 -0.037094 -0.0593425
410 2 1.8 1.6 0 0 0 0 -0.286103 0.469872 0 0.04 -0.444812 -0.520355
459 1 1.6 1.8 0 0 0 0 0.342765 0.498602 0 0.04 -0.150082 -0.414443
460 1 1.8 1.8 0 0 0 0 0.374447 -0.661442 0 0.04 -0.13267 -0.183042
411 1 2 1.6 0 0 0 0 -1.08631 0.702229 0 0.04 -0.0952622 -0.209915
412 1 2.2 1.6 0 0 0 0 0.246701 0.550852 0 0.04 -0.352774 -0.18301
413 1 2.4 1.6 0 0 0 0 0.59357 1.62747 0 0.04 -0.147173 -0.0816474
461 1 2 1.8 0 0 0 0 -0.135169 0.367736 0 0.04 -0.21728 -0.205173
462 1 2.2 1.8 0 0 0 0 1.04914 0.0827111 0 0.04 -0.104466 -0.195605
463 2 2.4 1.8 0 0 0 0 0.62674 0.304364 0 0.04 -0.391458 -0.390587
414 2 2.6 1.6 0 0 0 0 1.3773 -0.192177 0 0.04 -0.271043 -0.314324
415 1 2.8 1.6 0 0 0 0 -0.489542 -1.23805 0 0.04 -0.0385309 -0.174189
464 1 2.6 1.8 0 0 0 0 -2.3109 -1.00329 0 0.04 -0.168371 -0.140981
465 1 2.8 1.8 0 0 0 0 0.835432 1.81584 0 0.04 -0.165454 -0.250534
416 2 3 1.6 0 0 0 0 -1.86143 0.0931642 0 0.04 -0.5218 -0.609514
417 2 3.2 1.6 0 0 0 0 0.600644 1.1702 0 0.04 -0.498106 -0.519514
418 1 3.4 1.6 0 0 0 0 -0.512015 0.150953 0 0.04 -0.276892 -0.20961
466 2 3 1.8 0 0 0 0 -0.159221 0.909946 0 0.04 -0.385728 -0.232499
467 1 3.2 1.8 0 0 0 0 -0.589321 -1.58752 0 0.04 -0.106826 -0.37822
468 1 3.4 1.8 0 0 0 0 0.836905 -0.436744 0 0.04 -0.394856 -0.441905
419 1 3.6 1.6 0 0 0 0 1.75244 0.211915 0 0.04 -0.211069 -0.208508
420 2 3.8 1.6 0 0 0 0 0.193469 0.0124115 0 0.04 -0.404174 -0.425071
469 1 3.6 1.8 0 0 0 0 0.146253 -0.607747 0 0.04 -0.345016 -0.328982
470 1 3.8 1.8 0 0 0 0 0.896017 -1.88146 0 0.04 -0.0960502 -0.111941
421 1 4 1.6 0 0 0 0 -1.55985 1.12413 0 0.04 -0.0159557 0.00440609
422 1 4.2 1.6 0 0 0 0 1.67575 1.03604 0 0.04 -0.0177845 0.0461109
423 2 4.4 1.6 0 0 0 0 -0.196034 0.375172 0 0.04 -0.404128 -0.522012
471 2 4 1.8 0 0 0 0 -1.07776 0.366095 0 0.04 -0.5928 -0.415942
472 2 4.2 1.8 0 0 0 0 0.86311 0.166481 0 0.04 -0.569207 -0.467156
473 1 4.4 1.8 0 0 0 0 -0.961131 -1.32655 0 0.04 -0.107334 0.0500435