ITEM: TIMESTEP
0
ITEM: NUMBER OF ATOMS
7569
ITEM: BOX BOUNDS pp pp pp
0.0000000000000000e+00 1.7400000000000002e+01
0.0000000000000000e+00 1.7400000000000002e+01
0.0000000000000000e+00 2.0000000000000001e-01
ITEM: ATOMS id type x y z vx vy vz fx fy fz mass c_density c_peratom[1] c_peratom[2]
1 3 0 0 0 0 0 0 -9.49671e-08 7.73053e-07 0 0.04 0.999903 -0.00491738 -0.00491738
2 3 0.2 0 0 0 0 0 -3.26609e-07 -1.25127e-06 0 0.04 0.999903 -0.00491745 -0.00491743
3 3 0.4 0 0 0 0 0 -3.31761e-08 -3.86418e-07 0 0.04 0.999903 -0.00491737 -0.00491748
88 3 0 0.2 0 0 0 0 6.51534e-08 -1.88494e-07 0 0.04 0.999903 -0.00491733 -0.00491734
89 3 0.2 0.2 0 0 0 0 6.28558e-09 -3.17667e-07 0 0.04 0.999903 -0.00491723 -0.00491752
90 3 0.4 0.2 0 0 0 0 7.42872e-07 9.0719e-08 0 0.04 0.999903 -0.00491724 -0.00491718
175 3 0 0.4 0 0 0 0 1.12041e-07 3.90905e-07 0 0.04 0.999903 -0.00491732 -0.0049173
176 3 0.2 0.4 0 0 0 0 -3.03656e-07 2.21844e-07 0 0.04 0.999903 -0.00491729 -0.00491743
177 3 0.4 0.4 0 0 0 0 8.96917e-07 7.5135e-07 0 0.04 0.999903 -0.00491728 -0.00491729
4 3 0.6 0 0 0 0 0 -2.89393e-07 -2.05445e-07 0 0.04 0.999903 -0.00491735 -0.00491742
5 3 0.8 0 0 0 0 0 3.48447e-07 -8.71295e-07 0 0.04 0.999903 -0.00491726 -0.00491732
91 3 0.6 0.2 0 0 0 0 -7.19819e-07 3.95526e-07 0 0.04 0.999903 -0.00491744 -0.00491732
92 3 0.8 0.2 0 0 0 0 -3.17097e-07 1.08865e-07 0 0.04 0.999903 -0.00491727 -0.00491733
178 3 0.6 0.4 0 0 0 0 -1.03898e-06 -1.08863e-07 0 0.04 0.999903 -0.00491737 -0.00491742
179 3 0.8 0.4 0 0 0 0 7.66015e-08 4.58712e-07 0 0.04 0.999903 -0.00491741 -0.00491747
6 3 1 0 0 0 0 0 -3.38116e-07 -6.03427e-07 0 0.04 0.999903 -0.00491734 -0.0049174
7 3 1.2 0 0 0 0 0 0.00597428 4.33485e-07 0 0.04 0.999903 -0.00252767 -0.00491744
8 3 1.4 0 0 0 0 0 -1.93442e-08 2.07381e-08 0 0.04 0.999903 -0.00491727 -0.00491722
93 3 1 0.2 0 0 0 0 -9.0135e-07 1.23028e-07 0 0.04 0.999903 -0.00491749 -0.00491734
94 3 1.2 0.2 0 0 0 0 0.00597406 -5.13742e-07 0 0.04 0.999903 -0.00252777 -0.00491739
95 3 1.4 0.2 0 0 0 0 5.7687e-07 1.38586e-07 0 0.04 0.999903 -0.00491742 -0.00491736
180 3 1 0.4 0 0 0 0 -6.76418e-08 1.56094e-07 0 0.04 0.999903 -0.0049175 -0.00491735
181 3 1.2 0.4 0 0 0 0 0.00597473 5.20581e-07 0 0.04 0.999903 -0.00252779 -0.00491739
182 3 1.4 0.4 0 0 0 0 3.5926e-07 -1.63631e-07 0 0.04 0.999903 -0.00491745 -0.00491737
9 3 1.6 0 0 0 0 0 -4.03382e-07 2.60187e-07 0 0.04 0.999903 -0.00491751 -0.00491738
10 3 1.8 0 0 0 0 0 4.57627e-07 3.7314e-08 0 0.04 0.999903 -0.00491736 -0.00491742
96 3 1.6 0.2 0 0 0 0 -5.08605e-07 5.0207e-07 0 0.04 0.999903 -0.00491739 -0.00491728
97 3 1.8 0.2 0 0 0 0 -1.24125e-07 -2.11255e-07 0 0.04 0.999903 -0.00491738 -0.00491738
183 3 1.6 0.4 0 0 0 0 -5.91093e-07 4.42067e-07 0 0.04 0.999903 -0.0049173 -0.00491733
184 3 1.8 0.4 0 0 0 0 4.90276e-07 -4.92474e-07 0 0.04 0.999903 -0.00491732 -0.00491741
11 3 2 0 0 0 0 0 -0.00597309 1.11249e-06 0 0.04 0.999903 -0.00252781 -0.00491745
12 3 2.2 0 0 0 0 0 0.00597361 3.14503e-07 0 0.04 0.999903 -0.00252773 -0.00491739
13 3 2.4 0 0 0 0 0 0.00597345 -4.17679e-08 0 0.04 0.999903 -0.00252771 -0.00491736
98 3 2 0.2 0 0 0 0 -0.00597448 -5.04058e-07 0 0.04 0.999903 -0.00252778 -0.00491722
99 3 2.2 0.2 0 0 0 0 0.00597457 -1.50763e-07 0 0.04 0.999903 -0.0025277 -0.00491749
100 3 2.4 0.2 0 0 0 0 0.00597394 -2.53202e-07 0 0.04 0.999903 -0.00252774 -0.00491729
185 3 2 0.4 0 0 0 0 -0.00597457 2.88156e-07 0 0.04 0.999903 -0.00252771 -0.00491734
186 3 2.2 0.4 0 0 0 0 0.00597351 1.14638e-07 0 0.04 0.999903 -0.00252779 -0.00491739
187 3 2.4 0.4 0 0 0 0 0.00597509 -1.13782e-07 0 0.04 0.999903 -0.00252762 -0.00491732
14 3 2.6 0 0 0 0 0 -2.2785e-07 3.32589e-07 0 0.04 0.999903 -0.00491733 -0.0049173
15 3 2.8 0 0 0 0 0 0.00597429 -2.76191e-07 0 0.04 0.999903 -0.0025278 -0.00491743
101 3 2.6 0.2 0 0 0 0 -2.51616e-07 6.58322e-07 0 0.04 0.999903 -0.00491731 -0.00491736
102 3 2.8 0.2 0 0 0 0 0.00597392 -3.81487e-07 0 0.04 0.999903 -0.00252779 -0.00491744
188 3 2.6 0.4 0 0 0 0 2.42268e-07 5.46163e-08 0 0.04 0.999903 -0.0049173 -0.00491732
189 3 2.8 0.4 0 0 0 0 0.00597352 -2.4187e-07 0 0.04 0.999903 -0.00252758 -0.0049173
16 3 3 0 0 0 0 0 -0.00597407 3.24408e-07 0 0.04 0.999903 -0.00252769 -0.00491739
17 3 3.2 0 0 0 0 0 3.97978e-07 6.27667e-09 0 0.04 0.999903 -0.000138166 -0.00491727
103 3 3 0.2 0 0 0 0 -0.00597427 3.7271e-07 0 0.04 0.999903 -0.0025277 -0.00491734
104 3 3.2 0.2 0 0 0 0 -1.93101e-07 -8.92444e-07 0 0.04 0.999903 -0.000138095 -0.00491726
190 3 3 0.4 0 0 0 0 -0.00597432 -5.47322e-07 0 0.04 0.999903 -0.00252778 -0.0049173
191 3 3.2 0.4 0 0 0 0 1.10064e-07 -2.39166e-07 0 0.04 0.999903 -0.000138161 -0.00491732
18 3 3.4 0 0 0 0 0 0.00597352 8.48972e-07 0 0.04 0.999903 -0.00252769 -0.00491738
19 3 3.6 0 0 0 0 0 -0.00597423 5.28118e-07 0 0.04 0.999903 -0.00252769 -0.00491734
20 3 3.8 0 0 0 0 0 -3.72342e-07 -2.64442e-07 0 0.04 0.999903 -0.00491739 -0.00491729
105 3 3.4 0.2 0 0 0 0 0.00597455 3.34546e-07 0 0.04 0.999903 -0.00252749 -0.0049173
106 3 3.6 0.2 0 0 0 0 -0.00597417 -8.95043e-07 0 0.04 0.999903 -0.00252772 -0.00491729
107 3 3.8 0.2 0 0 0 0 7.05625e-07 2.5887e-07 0 0.04 0.999903 -0.00491729 -0.00491734
192 3 3.4 0.4 0 0 0 0 0.00597401 -2.82115e-07 0 0.04 0.999903 -0.0025277 -0.0049173
193 3 3.6 0.4 0 0 0 0 -0.00597358 2.2935e-07 0 0.04 0.999903 -0.00252787 -0.00491733
194 3 3.8 0.4 0 0 0 0 4.13556e-07 1.83025e-07 0 0.04 0.999903 -0.00491721 -0.00491727
21 3 4 0 0 0 0 0 -0.00597389 2.05775e-07 0 0.04 0.999903 -0.00252769 -0.00491739
22 3 4.2 0 0 0 0 0 3.83056e-07 5.12988e-07 0 0.04 0.999903 -0.000137954 -0.00491725
108 3 4 0.2 0 0 0 0 -0.00597463 -5.20067e-07 0 0.04 0.999903 -0.00252768 -0.00491739
109 3 4.2 0.2 0 0 0 0 3.46587e-07 -7.35185e-07 0 0.04 0.999903 -0.000138134 -0.00491736
195 3 4 0.4 0 0 0 0 -0.00597471 2.5143e-07 0 0.04 0.999903 -0.00252772 -0.00491738
196 3 4.2 0.4 0 0 0 0 -3.08412e-07 -1.15458e-07 0 0.04 0.999903 -0.000138198 -0.00491734
23 3 4.4 0 0 0 0 0 0.00597317 4.44001e-07 0 0.04 0.999903 -0.00252774 -0.00491736
24 3 4.6 0 0 0 0 0 0.0059737 -9.00715e-08 0 0.04 0.999903 -0.00252779 -0.00491743
25 3 4.8 0 0 0 0 0 0.00597447 -1.9847e-07 0 0.04 0.999903 -0.00252777 -0.00491744
110 3 4.4 0.2 0 0 0 0 0.00597414 -2.95777e-07 0 0.04 0.999903 -0.0025278 -0.00491742
111 3 4.6 0.2 0 0 0 0 0.00597463 3.14359e-08 0 0.04 0.999903 -0.00252776 -0.00491736
112 3 4.8 0.2 0 0 0 0 0.00597406 2.85865e-07 0 0.04 0.999903 -0.0025277 -0.00491735
197 3 4.4 0.4 0 0 0 0 0.00597342 3.77851e-07 0 0.04 0.999903 -0.00252774 -0.00491738
198 3 4.6 0.4 0 0 0 0 0.00597406 2.06936e-07 0 0.04 0.999903 -0.00252767 -0.00491727
199 3 4.8 0.4 0 0 0 0 0.0059744 3.51208e-07 0 0.04 0.999903 -0.00252762 -0.0049174
26 3 5 0 0 0 0 0 -0.00597359 2.23078e-08 0 0.04 0.999903 -0.00252763 -0.00491721
27 3 5.2 0 0 0 0 0 1.6199e-07 -9.0455e-08 0 0.04 0.999903 -0.00013812 -0.00491742
113 3 5 0.2 0 0 0 0 -0.00597332 -2.13661e-07 0 0.04 0.999903 -0.00252778 -0.00491742
114 3 5.2 0.2 0 0 0 0 -3.32795e-07 -5.59776e-07 0 0.04 0.999903 -0.000138086 -0.00491747
200 3 5 0.4 0 0 0 0 -0.00597417 2.66217e-07 0 0.04 0.999903 -0.00252773 -0.0049174
201 3 5.2 0.4 0 0 0 0 -7.10706e-07 -3.89861e-07 0 0.04 0.999903 -0.000138249 -0.00491743
28 3 5.4 0 0 0 0 0 2.89548e-07 7.13478e-07 0 0.04 0.999903 -0.0001381 -0.0049173
29 3 5.6 0 0 0 0 0 -5.0689e-07 -5.65217e-07 0 0.04 0.999903 -0.000138018 -0.00491747
115 3 5.4 0.2 0 0 0 0 2.53409e-07 -4.19261e-07 0 0.04 0.999903 -0.000137971 -0.00491722
116 3 5.6 0.2 0 0 0 0 -1.01826e-07 -2.55065e-08 0 0.04 0.999903 -0.000138231 -0.00491751
202 3 5.4 0.4 0 0 0 0 -5.70977e-08 -8.62265e-07 0 0.04 0.999903 -0.000137929 -0.00491719
203 3 5.6 0.4 0 0 0 0 8.77979e-08 -4.01281e-07 0 0.04 0.999903 -0.000138109 -0.00491746
30 3 5.8 0 0 0 0 0 0.00597363 -2.17037e-07 0 0.04 0.999903 -0.00252773 -0.00491731
31 3 6 0 0 0 0 0 -0.00597429 3.48249e-07 0 0.04 0.999903 -0.00252781 -0.00491741
32 3 6.2 0 0 0 0 0 4.30093e-07 1.1353e-07 0 0.04 0.999903 -0.000138195 -0.00491745
117 3 5.8 0.2 0 0 0 0 0.00597347 3.66131e-07 0 0.04 0.999903 -0.0025277 -0.00491742
118 3 6 0.2 0 0 0 0 -0.00597407 2.69195e-07 0 0.04 0.999903 -0.00252766 -0.00491731
119 3 6.2 0.2 0 0 0 0 1.63119e-07 2.58578e-07 0 0.04 0.999903 -0.000138123 -0.00491749
204 3 5.8 0.4 0 0 0 0 0.00597408 3.4815e-07 0 0.04 0.999903 -0.0025278 -0.00491741
205 3 6 0.4 0 0 0 0 -0.00597366 1.52445e-07 0 0.04 0.999903 -0.00252773 -0.00491733
206 3 6.2 0.4 0 0 0 0 1.06312e-06 -5.09457e-07 0 0.04 0.999903 -0.000138084 -0.00491757
33 3 6.4 0 0 0 0 0 1.13571e-07 6.51887e-07 0 0.04 0.999903 -0.000138138 -0.00491735
34 3 6.6 0 0 0 0 0 4.58038e-07 -3.0222e-07 0 0.04 0.999903 -0.000138028 -0.00491721
120 3 6.4 0.2 0 0 0 0 -9.71686e-07 -7.08152e-07 0 0.04 0.999903 -0.000138124 -0.00491737
121 3 6.6 0.2 0 0 0 0 -6.24911e-08 -9.78714e-09 0 0.04 0.999903 -0.00013802 -0.00491731
207 3 6.4 0.4 0 0 0 0 4.01101e-07 1.7359e-07 0 0.04 0.999903 -0.000138202 -0.00491733
208 3 6.6 0.4 0 0 0 0 2.34296e-08 -4.55975e-07 0 0.04 0.999903 -0.00013811 -0.00491729
35 3 6.8 0 0 0 0 0 0.00597427 -2.19306e-07 0 0.04 0.999903 -0.00252787 -0.00491735
36 3 7 0 0 0 0 0 -0.00597381 -4.90047e-07 0 0.04 0.999903 -0.00252782 -0.00491738
37 3 7.2 0 0 0 0 0 -3.16372e-07 2.67178e-07 0 0.04 0.999903 -0.000138109 -0.00491736
122 3 6.8 0.2 0 0 0 0 0.00597364 4.45315e-07 0 0.04 0.999903 -0.00252782 -0.00491743
123 3 7 0.2 0 0 0 0 -0.00597321 4.7274e-07 0 0.04 0.999903 -0.00252765 -0.00491727
124 3 7.2 0.2 0 0 0 0 7.14595e-07 4.84924e-07 0 0.04 0.999903 -0.00013807 -0.0049174
209 3 6.8 0.4 0 0 0 0 0.00597445 -2.24583e-07 0 0.04 0.999903 -0.00252775 -0.00491713
210 3 7 0.4 0 0 0 0 -0.00597448 4.63142e-07 0 0.04 0.999903 -0.00252775 -0.00491731
211 3 7.2 0.4 0 0 0 0 2.1998e-07 -4.78118e-07 0 0.04 0.999903 -0.000138125 -0.00491738
38 3 7.4 0 0 0 0 0 -0.00597405 -3.26621e-07 0 0.04 0.999903 -0.00252778 -0.00491734
39 3 7.6 0 0 0 0 0 -2.09259e-07 4.83993e-07 0 0.04 0.999903 -0.000137945 -0.00491728
125 3 7.4 0.2 0 0 0 0 -0.00597366 -4.93908e-07 0 0.04 0.999903 -0.00252777 -0.00491735
126 3 7.6 0.2 0 0 0 0 9.94178e-08 4.17191e-07 0 0.04 0.999903 -0.000138099 -0.00491729
212 3 7.4 0.4 0 0 0 0 -0.0059745 -7.49545e-07 0 0.04 0.999903 -0.00252781 -0.00491741
213 3 7.6 0.4 0 0 0 0 4.75934e-07 -4.56223e-07 0 0.04 0.999903 -0.000138205 -0.00491743
40 3 7.8 0 0 0 0 0 0.00597477 -5.15331e-07 0 0.04 0.999903 -0.00252772 -0.0049174
41 3 8 0 0 0 0 0 -0.00597435 4.64172e-07 0 0.04 0.999903 -0.00252778 -0.00491736
42 3 8.2 0 0 0 0 0 0.00597353 -1.60956e-07 0 0.04 0.999903 -0.00252764 -0.00491729
127 3 7.8 0.2 0 0 0 0 0.00597386 -3.94527e-07 0 0.04 0.999903 -0.00252763 -0.00491731
128 3 8 0.2 0 0 0 0 -0.00597411 2.72599e-07 0 0.04 0.999903 -0.00252772 -0.00491738
129 3 8.2 0.2 0 0 0 0 0.00597452 4.79158e-09 0 0.04 0.999903 -0.00252763 -0.00491719
214 3 7.8 0.4 0 0 0 0 0.00597434 -2.33089e-07 0 0.04 0.999903 -0.00252773 -0.00491732
215 3 8 0.4 0 0 0 0 -0.00597367 -3.04179e-07 0 0.04 0.999903 -0.0025277 -0.00491733
216 3 8.2 0.4 0 0 0 0 0.00597434 5.53606e-07 0 0.04 0.999903 -0.00252765 -0.0049174
43 3 8.4 0 0 0 0 0 -0.00597405 -6.73465e-07 0 0.04 0.999903 -0.00252765 -0.00491727
44 3 8.6 0 0 0 0 0 -0.00597438 3.72436e-07 0 0.04 0.999903 -0.00252774 -0.00491753
130 3 8.4 0.2 0 0 0 0 -0.00597438 -3.24204e-07 0 0.04 0.999903 -0.00252763 -0.00491729
131 3 8.6 0.2 0 0 0 0 -0.00597416 -1.07944e-07 0 0.04 0.999903 -0.00252777 -0.00491726
217 3 8.4 0.4 0 0 0 0 -0.00597412 -7.53211e-08 0 0.04 0.999903 -0.00252756 -0.00491742
218 3 8.6 0.4 0 0 0 0 -0.00597432 -5.33334e-07 0 0.04 0.999903 -0.00252772 -0.00491734
45 3 8.8 0 0 0 0 0 1.54064e-07 -9.24009e-07 0 0.04 0.999903 -0.0049173 -0.00491729
46 3 9 0 0 0 0 0 -0.00597466 -9.2696e-08 0 0.04 0.999903 -0.00252762 -0.00491733
132 3 8.8 0.2 0 0 0 0 6.28923e-07 2.52182e-09 0 0.04 0.999903 -0.00491729 -0.0049175
133 3 9 0.2 0 0 0 0 -0.00597451 -3.21769e-07 0 0.04 0.999903 -0.0025277 -0.0049174
219 3 8.8 0.4 0 0 0 0 -9.39983e-07 9.32908e-07 0 0.04 0.999903 -0.00491715 -0.00491733
220 3 9 0.4 0 0 0 0 -0.00597335 8.74539e-07 0 0.04 0.999903 -0.00252768 -0.00491734
47 3 9.2 0 0 0 0 0 0.00597521 -7.51141e-08 0 0.04 0.999903 -0.00252756 -0.00491725
48 3 9.4 0 0 0 0 0 1.97536e-07 -6.50276e-07 0 0.04 0.999903 -0.0049174 -0.00491739
49 3 9.6 0 0 0 0 0 0.00597406 -1.21171e-07 0 0.04 0.999903 -0.00252768 -0.00491736
134 3 9.2 0.2 0 0 0 0 0.00597361 -2.71838e-07 0 0.04 0.999903 -0.00252773 -0.0049174
135 3 9.4 0.2 0 0 0 0 5.62101e-09 4.60363e-08 0 0.04 0.999903 -0.00491722 -0.00491732
136 3 9.6 0.2 0 0 0 0 0.00597327 -4.07685e-07 0 0.04 0.999903 -0.00252779 -0.00491742
221 3 9.2 0.4 0 0 0 0 0.00597412 -2.89912e-07 0 0.04 0.999903 -0.00252772 -0.00491752
222 3 9.4 0.4 0 0 0 0 -2.93465e-07 1.83432e-07 0 0.04 0.999903 -0.00491733 -0.0049173
223 3 9.6 0.4 0 0 0 0 0.00597437 1.0894e-07 0 0.04 0.999903 -0.00252776 -0.0049174
50 3 9.8 0 0 0 0 0 -3.52512e-08 -8.71115e-08 0 0.04 0.999903 -0.00491729 -0.00491727
51 3 10 0 0 0 0 0 -0.00597416 1.94866e-07 0 0.04 0.999903 -0.00252774 -0.00491735
137 3 9.8 0.2 0 0 0 0 1.96753e-07 4.49707e-07 0 0.04 0.999903 -0.00491728 -0.00491721
138 3 10 0.2 0 0 0 0 -0.00597441 2.91765e-07 0 0.04 0.999903 -0.00252759 -0.00491739
224 3 9.8 0.4 0 0 0 0 -3.07699e-07 4.34478e-07 0 0.04 0.999903 -0.00491732 -0.00491734
225 3 10 0.4 0 0 0 0 -0.00597387 1.66999e-07 0 0.04 0.999903 -0.00252778 -0.00491735
52 3 10.2 0 0 0 0 0 0.00597287 6.2042e-07 0 0.04 0.999903 -0.00252769 -0.00491731
53 3 10.4 0 0 0 0 0 -0.00597334 9.62269e-07 0 0.04 0.999903 -0.00252792 -0.0049174
54 3 10.6 0 0 0 0 0 0.00597492 7.93236e-07 0 0.04 0.999903 -0.00252776 -0.00491738
139 3 10.2 0.2 0 0 0 0 0.00597425 8.34788e-08 0 0.04 0.999903 -0.00252793 -0.00491736
140 3 10.4 0.2 0 0 0 0 -0.00597403 -3.24059e-07 0 0.04 0.999903 -0.00252778 -0.00491721
141 3 10.6 0.2 0 0 0 0 0.00597437 1.40498e-07 0 0.04 0.999903 -0.00252771 -0.00491734
226 3 10.2 0.4 0 0 0 0 0.00597413 -6.68737e-07 0 0.04 0.999903 -0.00252763 -0.0049173
227 3 10.4 0.4 0 0 0 0 -0.00597387 -5.64619e-09 0 0.04 0.999903 -0.00252777 -0.00491738
228 3 10.6 0.4 0 0 0 0 0.0059739 2.66439e-07 0 0.04 0.999903 -0.00252778 -0.00491743
55 3 10.8 0 0 0 0 0 -4.40909e-07 -3.47799e-07 0 0.04 0.999903 -0.00491744 -0.00491739
56 3 11 0 0 0 0 0 -0.00597403 6.14889e-07 0 0.04 0.999903 -0.00252764 -0.00491732
142 3 10.8 0.2 0 0 0 0 2.96751e-07 1.83031e-07 0 0.04 0.999903 -0.00491731 -0.00491725
143 3 11 0.2 0 0 0 0 -0.00597411 3.03903e-08 0 0.04 0.999903 -0.00252771 -0.00491729
229 3 10.8 0.4 0 0 0 0 3.47131e-07 -6.4635e-07 0 0.04 0.999903 -0.00491748 -0.00491738
230 3 11 0.4 0 0 0 0 -0.00597433 7.32042e-09 0 0.04 0.999903 -0.00252775 -0.00491733
57 3 11.2 0 0 0 0 0 0.00597444 3.5694e-07 0 0.04 0.999903 -0.00252776 -0.00491734
58 3 11.4 0 0 0 0 0 -0.00597403 -6.43863e-07 0 0.04 0.999903 -0.00252774 -0.00491735
144 3 11.2 0.2 0 0 0 0 0.00597433 3.21029e-09 0 0.04 0.999903 -0.00252776 -0.0049174
145 3 11.4 0.2 0 0 0 0 -0.00597411 -2.66017e-07 0 0.04 0.999903 -0.00252776 -0.00491735
231 3 11.2 0.4 0 0 0 0 0.00597391 -3.01286e-07 0 0.04 0.999903 -0.00252786 -0.00491747
232 3 11.4 0.4 0 0 0 0 -0.00597351 -5.56096e-07 0 0.04 0.999903 -0.00252771 -0.00491728
59 3 11.6 0 0 0 0 0 0.0059743 9.6968e-07 0 0.04 0.999903 -0.00252773 -0.00491732
60 3 11.8 0 0 0 0 0 -9.4018e-07 -4.45865e-07 0 0.04 0.999903 -0.0049173 -0.00491737
61 3 12 0 0 0 0 0 -0.00597403 -2.72571e-07 0 0.04 0.999903 -0.00252779 -0.00491741
146 3 11.6 0.2 0 0 0 0 0.00597439 -3.80654e-07 0 0.04 0.999903 -0.00252784 -0.0049173
147 3 11.8 0.2 0 0 0 0 1.81217e-07 9.4078e-08 0 0.04 0.999903 -0.0049173 -0.00491735
148 3 12 0.2 0 0 0 0 -0.00597379 -1.23686e-07 0 0.04 0.999903 -0.00252759 -0.00491727
233 3 11.6 0.4 0 0 0 0 0.00597376 1.22549e-07 0 0.04 0.999903 -0.00252776 -0.00491733
234 3 11.8 0.4 0 0 0 0 1.79439e-07 6.19579e-08 0 0.04 0.999903 -0.00491726 -0.00491733
235 3 12 0.4 0 0 0 0 -0.00597364 2.82857e-07 0 0.04 0.999903 -0.00252784 -0.00491728
62 3 12.2 0 0 0 0 0 0.0059738 4.5028e-08 0 0.04 0.999903 -0.00252768 -0.00491744
63 3 12.4 0 0 0 0 0 -0.00597389 -1.08929e-06 0 0.04 0.999903 -0.00252758 -0.00491719
149 3 12.2 0.2 0 0 0 0 0.00597406 2.03958e-07 0 0.04 0.999903 -0.00252767 -0.00491744
150 3 12.4 0.2 0 0 0 0 -0.00597395 -3.40372e-08 0 0.04 0.999903 -0.00252778 -0.00491741
236 3 12.2 0.4 0 0 0 0 0.00597425 2.17931e-08 0 0.04 0.999903 -0.00252773 -0.0049173
237 3 12.4 0.4 0 0 0 0 -0.00597434 5.68342e-07 0 0.04 0.999903 -0.00252775 -0.00491743
64 3 12.6 0 0 0 0 0 0.00597435 -2.45531e-07 0 0.04 0.999903 -0.00252765 -0.00491731
65 3 12.8 0 0 0 0 0 -1.14834e-06 4.73193e-07 0 0.04 0.999903 -0.00491728 -0.00491732
66 3 13 0 0 0 0 0 -0.00597408 -4.09334e-07 0 0.04 0.999903 -0.00252782 -0.00491728
151 3 12.6 0.2 0 0 0 0 0.0059748 1.39905e-07 0 0.04 0.999903 -0.00252772 -0.00491736
152 3 12.8 0.2 0 0 0 0 2.38214e-07 -7.73737e-07 0 0.04 0.999903 -0.00491743 -0.00491748
153 3 13 0.2 0 0 0 0 -0.00597409 7.78156e-08 0 0.04 0.999903 -0.00252782 -0.0049173
238 3 12.6 0.4 0 0 0 0 0.00597431 -5.35267e-07 0 0.04 0.999903 -0.00252769 -0.00491749
239 3 12.8 0.4 0 0 0 0 5.81221e-07 1.02903e-07 0 0.04 0.999903 -0.0049175 -0.0049175
240 3 13 0.4 0 0 0 0 -0.00597431 -1.00163e-06 0 0.04 0.999903 -0.00252751 -0.00491732
67 3 13.2 0 0 0 0 0 0.00597396 2.74036e-07 0 0.04 0.999903 -0.00252781 -0.00491741
68 3 13.4 0 0 0 0 0 -0.00597401 -6.94929e-07 0 0.04 0.999903 -0.00252768 -0.00491739
154 3 13.2 0.2 0 0 0 0 0.0059742 1.571e-07 0 0.04 0.999903 -0.00252754 -0.00491741
155 3 13.4 0.2 0 0 0 0 -0.00597424 3.57375e-07 0 0.04 0.999903 -0.00252775 -0.00491744
241 3 13.2 0.4 0 0 0 0 0.00597408 -6.8677e-07 0 0.04 0.999903 -0.0025278 -0.00491731
242 3 13.4 0.4 0 0 0 0 -0.0059746 1.15822e-06 0 0.04 0.999903 -0.00252777 -0.00491738
69 3 13.6 0 0 0 0 0 0.0059738 3.48244e-07 0 0.04 0.999903 -0.00252775 -0.00491736
70 3 13.8 0 0 0 0 0 -6.62864e-07 -7.22942e-07 0 0.04 0.999903 -0.00491741 -0.00491744
71 3 14 0 0 0 0 0 -0.00597345 2.8243e-07 0 0.04 0.999903 -0.00252773 -0.00491742
156 3 13.6 0.2 0 0 0 0 0.00597362 5.67817e-08 0 0.04 0.999903 -0.0025277 -0.00491735
157 3 13.8 0.2 0 0 0 0 1.11551e-06 1.41885e-07 0 0.04 0.999903 -0.00491734 -0.00491737
158 3 14 0.2 0 0 0 0 -0.00597407 -3.38682e-07 0 0.04 0.999903 -0.00252775 -0.00491741
243 3 13.6 0.4 0 0 0 0 0.00597451 3.52076e-07 0 0.04 0.999903 -0.00252777 -0.00491736
244 3 13.8 0.4 0 0 0 0 -1.60987e-07 -8.88377e-07 0 0.04 0.999903 -0.00491722 -0.00491734
245 3 14 0.4 0 0 0 0 -0.00597373 2.00277e-07 0 0.04 0.999903 -0.00252773 -0.00491734
72 3 14.2 0 0 0 0 0 0.00597418 4.39965e-07 0 0.04 0.999903 -0.00252767 -0.00491728
73 3 14.4 0 0 0 0 0 -0.00597432 1.7506e-07 0 0.04 0.999903 -0.00252756 -0.00491729
159 3 14.2 0.2 0 0 0 0 0.00597371 9.11172e-07 0 0.04 0.999903 -0.00252764 -0.00491741
160 3 14.4 0.2 0 0 0 0 -0.00597387 6.82523e-08 0 0.04 0.999903 -0.00252773 -0.00491735
246 3 14.2 0.4 0 0 0 0 0.00597401 -5.22533e-07 0 0.04 0.999903 -0.0025278 -0.00491744
247 3 14.4 0.4 0 0 0 0 -0.00597373 1.15773e-07 0 0.04 0.999903 -0.00252763 -0.00491722
74 3 14.6 0 0 0 0 0 0.00597437 1.19173e-07 0 0.04 0.999903 -0.00252769 -0.00491725
75 3 14.8 0 0 0 0 0 8.41206e-07 2.42271e-07 0 0.04 0.999903 -0.00491732 -0.00491741
161 3 14.6 0.2 0 0 0 0 0.00597395 -7.83497e-08 0 0.04 0.999903 -0.00252772 -0.00491733
162 3 14.8 0.2 0 0 0 0 3.86457e-07 -2.97714e-07 0 0.04 0.999903 -0.00491741 -0.00491751
248 3 14.6 0.4 0 0 0 0 0.00597349 3.91815e-07 0 0.04 0.999903 -0.00252773 -0.00491735
249 3 14.8 0.4 0 0 0 0 4.09253e-08 -3.71648e-07 0 0.04 0.999903 -0.00491723 -0.00491737
76 3 15 0 0 0 0 0 -0.00597447 -6.89862e-07 0 0.04 0.999903 -0.00252773 -0.00491737
77 3 15.2 0 0 0 0 0 0.00597356 8.58416e-07 0 0.04 0.999903 -0.00252758 -0.00491733
78 3 15.4 0 0 0 0 0 4.54215e-08 -3.42439e-07 0 0.04 0.999903 -0.000138133 -0.00491726
163 3 15 0.2 0 0 0 0 -0.00597464 1.31948e-07 0 0.04 0.999903 -0.00252781 -0.0049174
164 3 15.2 0.2 0 0 0 0 0.00597381 -5.1425e-07 0 0.04 0.999903 -0.00252772 -0.00491732
165 3 15.4 0.2 0 0 0 0 1.08517e-07 -1.50227e-06 0 0.04 0.999903 -0.000138221 -0.00491753
250 3 15 0.4 0 0 0 0 -0.0059739 3.82188e-07 0 0.04 0.999903 -0.0025277 -0.00491735
251 3 15.2 0.4 0 0 0 0 0.00597386 4.07408e-07 0 0.04 0.999903 -0.0025277 -0.00491739
252 3 15.4 0.4 0 0 0 0 1.70431e-07 -9.20717e-08 0 0.04 0.999903 -0.00013815 -0.00491744
79 3 15.6 0 0 0 0 0 2.16175e-07 -1.4228e-07 0 0.04 0.999903 -0.00491722 -0.00491738
80 3 15.8 0 0 0 0 0 -4.65664e-08 9.19402e-07 0 0.04 0.999903 -0.00491745 -0.00491737
166 3 15.6 0.2 0 0 0 0 -3.30387e-07 -4.25519e-07 0 0.04 0.999903 -0.0049174 -0.00491734
167 3 15.8 0.2 0 0 0 0 3.37047e-07 4.38502e-08 0 0.04 0.999903 -0.00491733 -0.00491738
253 3 15.6 0.4 0 0 0 0 4.62704e-07 5.83167e-07 0 0.04 0.999903 -0.00491741 -0.00491732
254 3 15.8 0.4 0 0 0 0 -3.24794e-07 -2.23402e-07 0 0.04 0.999903 -0.0049174 -0.00491729
81 3 16 0 0 0 0 0 -0.00597354 6.02188e-07 0 0.04 0.999903 -0.00252774 -0.00491716
82 3 16.2 0 0 0 0 0 -0.00597452 -2.83491e-07 0 0.04 0.999903 -0.00252768 -0.00491732
83 3 16.4 0 0 0 0 0 0.00597396 2.34936e-07 0 0.04 0.999903 -0.00252774 -0.00491726
168 3 16 0.2 0 0 0 0 -0.00597415 -7.9271e-07 0 0.04 0.999903 -0.00252778 -0.00491739
169 3 16.2 0.2 0 0 0 0 -0.0059737 6.38316e-08 0 0.04 0.999903 -0.00252774 -0.00491727
170 3 16.4 0.2 0 0 0 0 0.00597454 -5.55534e-07 0 0.04 0.999903 -0.00252783 -0.00491738
255 3 16 0.4 0 0 0 0 -0.00597339 1.06702e-06 0 0.04 0.999903 -0.00252782 -0.00491731
256 3 16.2 0.4 0 0 0 0 -0.00597415 -2.39022e-07 0 0.04 0.999903 -0.00252771 -0.0049174
257 3 16.4 0.4 0 0 0 0 0.0059735 6.79989e-09 0 0.04 0.999903 -0.00252771 -0.00491738
84 3 16.6 0 0 0 0 0 -7.34022e-08 -5.28406e-09 0 0.04 0.999903 -0.00491725 -0.00491717
85 3 16.8 0 0 0 0 0 3.87727e-07 -9.34814e-07 0 0.04 0.999903 -0.00491746 -0.00491742
171 3 16.6 0.2 0 0 0 0 -9.28516e-09 5.5933e-07 0 0.04 0.999903 -0.00491735 -0.00491738
172 3 16.8 0.2 0 0 0 0 -5.98843e-08 -1.85557e-07 0 0.04 0.999903 -0.00491729 -0.00491737
258 3 16.6 0.4 0 0 0 0 -4.11535e-07 2.34761e-07 0 0.04 0.999903 -0.00491741 -0.00491735
259 3 16.8 0.4 0 0 0 0 -5.74555e-07 4.36053e-07 0 0.04 0.999903 -0.00491752 -0.00491737
86 3 17 0 0 0 0 0 2.79758e-07 5.71517e-07 0 0.04 0.999903 -0.00491728 -0.00491727
87 3 17.2 0 0 0 0 0 -0.00597415 -1.34967e-07 0 0.04 0.999903 -0.00252773 -0.00491736
173 3 17 0.2 0 0 0 0 2.46152e-07 3.84567e-08 0 0.04 0.999903 -0.00491747 -0.00491737
174 3 17.2 0.2 0 0 0 0 -0.00597392 1.70091e-09 0 0.04 0.999903 -0.00252777 -0.00491726
260 3 17 0.4 0 0 0 0 1.30352e-07 -4.60934e-07 0 0.04 0.999903 -0.00491744 -0.00491747
261 3 17.2 0.4 0 0 0 0 -0.00597306 -2.75575e-07 0 0.04 0.999903 -0.00252771 -0.00491735
262 3 0 0.6 0 0 0 0 8.97432e-08 -1.13258e-06 0 0.04 0.999903 -0.00491741 -0.00491736
263 3 0.2 0.6 0 0 0 0 1.6314e-07 -7.35289e-07 0 0.04 0.999903 -0.00491726 -0.00491749
264 3 0.4 0.6 0 0 0 0 -1.83232e-07 -1.34623e-07 0 0.04 0.999903 -0.00491734 -0.00491736
349 3 0 0.8 0 0 0 0 -6.92055e-07 5.70153e-07 0 0.04 0.999903 -0.00491733 -0.00491739
350 3 0.2 0.8 0 0 0 0 4.05416e-07 4.4317e-07 0 0.04 0.999903 -0.0049174 -0.00491741
351 3 0.4 0.8 0 0 0 0 3.30106e-08 6.29141e-07 0 0.04 0.999903 -0.00491753 -0.00491736
265 3 0.6 0.6 0 0 0 0 -1.87221e-07 -4.40236e-07 0 0.04 0.999903 -0.00491732 -0.00491738
266 3 0.8 0.6 0 0 0 0 5.01331e-07 3.24556e-07 0 0.04 0.999903 -0.00491733 -0.00491738
352 3 0.6 0.8 0 0 0 0 -1.35495e-07 1.3898e-07 0 0.04 0.999903 -0.00491738 -0.00491737
353 3 0.8 0.8 0 0 0 0 -4.89293e-07 -1.91117e-07 0 0.04 0.999903 -0.0049174 -0.00491726
267 3 1 0.6 0 0 0 0 -2.41921e-07 -5.79838e-07 0 0.04 0.999903 -0.0049174 -0.00491734
268 3 1.2 0.6 0 0 0 0 0.00597377 -5.15901e-07 0 0.04 0.999903 -0.00252768 -0.00491745
269 3 1.4 0.6 0 0 0 0 4.02822e-07 -7.58717e-07 0 0.04 0.999903 -0.0049174 -0.00491734
354 3 1 0.8 0 0 0 0 -1.22358e-07 4.68914e-07 0 0.04 0.999903 -0.0049174 -0.00491748
355 3 1.2 0.8 0 0 0 0 0.00597502 -4.85367e-07 0 0.04 0.999903 -0.0025277 -0.00491738
356 3 1.4 0.8 0 0 0 0 -4.06133e-07 -1.57639e-07 0 0.04 0.999903 -0.00491732 -0.00491736
270 3 1.6 0.6 0 0 0 0 -4.84245e-07 -5.26011e-07 0 0.04 0.999903 -0.00491723 -0.00491728
271 3 1.8 0.6 0 0 0 0 -1.28347e-07 6.5572e-08 0 0.04 0.999903 -0.00491732 -0.00491738
357 3 1.6 0.8 0 0 0 0 -3.83164e-07 3.14106e-07 0 0.04 0.999903 -0.00491752 -0.00491734
358 3 1.8 0.8 0 0 0 0 8.47052e-07 3.95888e-07 0 0.04 0.999903 -0.0049174 -0.00491738
272 3 2 0.6 0 0 0 0 -0.00597295 -1.67093e-07 0 0.04 0.999903 -0.00252762 -0.00491734
273 3 2.2 0.6 0 0 0 0 0.0059741 3.16167e-07 0 0.04 0.999903 -0.0025275 -0.00491733
274 3 2.4 0.6 0 0 0 0 0.00597351 1.24506e-08 0 0.04 0.999903 -0.0025277 -0.00491737
359 3 2 0.8 0 0 0 0 -0.00597394 -1.32727e-08 0 0.04 0.999903 -0.00252778 -0.00491724
360 3 2.2 0.8 0 0 0 0 0.00597314 3.57117e-07 0 0.04 0.999903 -0.00252779 -0.00491738
361 3 2.4 0.8 0 0 0 0 0.00597527 -1.88913e-07 0 0.04 0.999903 -0.00252756 -0.00491728
275 3 2.6 0.6 0 0 0 0 -6.17703e-07 1.62147e-07 0 0.04 0.999903 -0.00491737 -0.0049174
276 3 2.8 0.6 0 0 0 0 0.00597379 -8.86544e-08 0 0.04 0.999903 -0.00252778 -0.00491737
362 3 2.6 0.8 0 0 0 0 -6.89258e-07 -6.58858e-08 0 0.04 0.999903 -0.00491736 -0.00491734
363 3 2.8 0.8 0 0 0 0 0.00597365 3.29891e-07 0 0.04 0.999903 -0.00252784 -0.00491751
277 3 3 0.6 0 0 0 0 -0.00597397 -1.0427e-08 0 0.04 0.999903 -0.0025278 -0.00491734
278 3 3.2 0.6 0 0 0 0 3.3738e-07 1.05105e-08 0 0.04 0.999903 -0.000138184 -0.00491751
364 3 3 0.8 0 0 0 0 -0.00597394 7.05729e-08 0 0.04 0.999903 -0.00252765 -0.00491737
365 3 3.2 0.8 0 0 0 0 -3.86361e-07 -1.23648e-07 0 0.04 0.999903 -0.000138049 -0.00491741
279 3 3.4 0.6 0 0 0 0 0.00597428 3.71285e-07 0 0.04 0.999903 -0.00252789 -0.00491739
280 3 3.6 0.6 0 0 0 0 -0.00597414 -5.73135e-07 0 0.04 0.999903 -0.00252771 -0.00491741
281 3 3.8 0.6 0 0 0 0 7.39181e-07 -3.36192e-08 0 0.04 0.999903 -0.00491732 -0.00491732
366 3 3.4 0.8 0 0 0 0 0.00597401 1.45248e-07 0 0.04 0.999903 -0.0025278 -0.00491753
367 3 3.6 0.8 0 0 0 0 -0.0059745 -8.40059e-08 0 0.04 0.999903 -0.00252779 -0.00491739
368 3 3.8 0.8 0 0 0 0 -7.16434e-09 8.10762e-08 0 0.04 0.999903 -0.00491745 -0.00491744
282 3 4 0.6 0 0 0 0 -0.00597347 2.69303e-07 0 0.04 0.999903 -0.00252769 -0.00491737
283 3 4.2 0.6 0 0 0 0 2.66441e-07 -1.27773e-07 0 0.04 0.999903 -0.000138004 -0.00491729
369 3 4 0.8 0 0 0 0 -0.00597491 -2.31349e-07 0 0.04 0.999903 -0.00252774 -0.00491735
370 3 4.2 0.8 0 0 0 0 4.1732e-09 -6.73721e-07 0 0.04 0.999903 -0.000138069 -0.00491739
284 3 4.4 0.6 0 0 0 0 0.00597456 -1.50516e-07 0 0.04 0.999903 -0.00252768 -0.00491731
285 3 4.6 0.6 0 0 0 0 0.00597439 1.11565e-07 0 0.04 0.999903 -0.00252775 -0.00491734
286 3 4.8 0.6 0 0 0 0 0.00597444 -7.84694e-07 0 0.04 0.999903 -0.00252771 -0.0049174
371 3 4.4 0.8 0 0 0 0 0.00597412 1.69459e-08 0 0.04 0.999903 -0.0025277 -0.00491733
372 3 4.6 0.8 0 0 0 0 0.00597336 3.09639e-07 0 0.04 0.999903 -0.00252767 -0.0049173
373 3 4.8 0.8 0 0 0 0 0.00597386 -6.4457e-07 0 0.04 0.999903 -0.00252785 -0.00491737
287 3 5 0.6 0 0 0 0 -0.00597452 9.74981e-07 0 0.04 0.999903 -0.00252758 -0.00491735
288 3 5.2 0.6 0 0 0 0 -7.83286e-07 8.48226e-07 0 0.04 0.999903 -0.000138109 -0.00491728
374 3 5 0.8 0 0 0 0 -0.00597375 8.20667e-09 0 0.04 0.999903 -0.00252766 -0.00491727
375 3 5.2 0.8 0 0 0 0 4.45223e-07 -1.91093e-07 0 0.04 0.999903 -0.000138272 -0.00491731
289 3 5.4 0.6 0 0 0 0 -1.02815e-07 6.12393e-07 0 0.04 0.999903 -0.000138177 -0.00491733
290 3 5.6 0.6 0 0 0 0 8.02643e-07 1.16186e-07 0 0.04 0.999903 -0.000138022 -0.00491747
376 3 5.4 0.8 0 0 0 0 4.29526e-07 2.80395e-07 0 0.04 0.999903 -0.000137998 -0.00491739
377 3 5.6 0.8 0 0 0 0 2.76616e-07 -6.64074e-07 0 0.04 0.999903 -0.000138189 -0.00491743
291 3 5.8 0.6 0 0 0 0 0.00597414 8.61928e-07 0 0.04 0.999903 -0.00252775 -0.00491737
292 3 6 0.6 0 0 0 0 -0.00597447 2.67038e-07 0 0.04 0.999903 -0.00252774 -0.00491745
293 3 6.2 0.6 0 0 0 0 -8.91848e-07 9.41741e-07 0 0.04 0.999903 -0.000138011 -0.00491741
378 3 5.8 0.8 0 0 0 0 0.00597511 -3.38729e-07 0 0.04 0.999903 -0.00252767 -0.00491731
379 3 6 0.8 0 0 0 0 -0.00597407 -5.99504e-08 0 0.04 0.999903 -0.00252772 -0.00491738
380 3 6.2 0.8 0 0 0 0 -7.25718e-07 2.4158e-08 0 0.04 0.999903 -0.000138011 -0.0049173
294 3 6.4 0.6 0 0 0 0 -4.55028e-07 5.73139e-07 0 0.04 0.999903 -0.00013802 -0.00491746
295 3 6.6 0.6 0 0 0 0 -1.14314e-07 2.54505e-07 0 0.04 0.999903 -0.000138159 -0.00491731
381 3 6.4 0.8 0 0 0 0 -1.75958e-07 6.59576e-07 0 0.04 0.999903 -0.000138145 -0.00491736
382 3 6.6 0.8 0 0 0 0 -4.2844e-07 -6.86763e-07 0 0.04 0.999903 -0.000137978 -0.00491728
296 3 6.8 0.6 0 0 0 0 0.00597431 4.53199e-08 0 0.04 0.999903 -0.00252777 -0.00491733
297 3 7 0.6 0 0 0 0 -0.0059746 -9.79922e-08 0 0.04 0.999903 -0.00252792 -0.00491744
298 3 7.2 0.6 0 0 0 0 -7.15615e-07 -8.34339e-08 0 0.04 0.999903 -0.000138144 -0.00491744
383 3 6.8 0.8 0 0 0 0 0.00597413 -3.29115e-07 0 0.04 0.999903 -0.00252768 -0.00491727
384 3 7 0.8 0 0 0 0 -0.00597468 -2.08486e-07 0 0.04 0.999903 -0.00252769 -0.00491748
385 3 7.2 0.8 0 0 0 0 2.62316e-07 -4.62337e-07 0 0.04 0.999903 -0.000138123 -0.00491735
299 3 7.4 0.6 0 0 0 0 -0.00597389 5.5636e-07 0 0.04 0.999903 -0.00252773 -0.00491728
300 3 7.6 0.6 0 0 0 0 3.21688e-07 1.67952e-07 0 0.04 0.999903 -0.000138155 -0.00491736
386 3 7.4 0.8 0 0 0 0 -0.00597513 4.37343e-07 0 0.04 0.999903 -0.00252772 -0.00491729
387 3 7.6 0.8 0 0 0 0 7.19784e-07 5.89497e-07 0 0.04 0.999903 -0.000138055 -0.00491736
301 3 7.8 0.6 0 0 0 0 0.00597307 -1.71496e-07 0 0.04 0.999903 -0.00252776 -0.00491746
302 3 8 0.6 0 0 0 0 -0.00597393 -1.36917e-08 0 0.04 0.999903 -0.00252784 -0.00491737
303 3 8.2 0.6 0 0 0 0 0.00597444 1.09431e-07 0 0.04 0.999903 -0.00252775 -0.0049173
388 3 7.8 0.8 0 0 0 0 0.00597403 -1.28451e-07 0 0.04 0.999903 -0.00252767 -0.00491735
389 3 8 0.8 0 0 0 0 -0.00597333 1.68281e-07 0 0.04 0.999903 -0.00252777 -0.00491732
390 3 8.2 0.8 0 0 0 0 0.00597359 -8.93258e-07 0 0.04 0.999903 -0.00252762 -0.00491736
304 3 8.4 0.6 0 0 0 0 -0.00597437 7.63422e-07 0 0.04 0.999903 -0.00252766 -0.00491734
305 3 8.6 0.6 0 0 0 0 -0.00597296 -6.21806e-07 0 0.04 0.999903 -0.00252763 -0.00491727
391 3 8.4 0.8 0 0 0 0 -0.00597353 1.25664e-07 0 0.04 0.999903 -0.00252777 -0.00491728