ITEM: TIMESTEP
0
ITEM: NUMBER OF ATOMS
10000
ITEM: BOX BOUNDS pp pp pp
0.0000000000000000e+00 2.0000000000000000e+01
0.0000000000000000e+00 2.0000000000000000e+01
0.0000000000000000e+00 2.0000000000000001e-01
ITEM: ATOMS id type x y z vx vy vz fx fy fz mass c_density c_peratom[1] c_peratom[2]
1 2 0 0 0 0 0 0 -0.00477857 -0.00477836 0 0.04 0.999903 -0.00171169 -0.00171174
2 2 0.2 0 0 0 0 0 -0.00478001 -0.00477986 0 0.04 0.999903 -0.00171178 -0.00171188
3 2 0.4 0 0 0 0 0 -0.00477918 -0.00477926 0 0.04 0.999903 -0.00171183 -0.00171187
101 2 0 0.2 0 0 0 0 -0.00477978 -0.00477958 0 0.04 0.999903 -0.00171163 -0.00171161
102 2 0.2 0.2 0 0 0 0 -0.00477874 -0.00477878 0 0.04 0.999903 -0.00171168 -0.00171167
103 2 0.4 0.2 0 0 0 0 -0.00478004 -0.00477879 0 0.04 0.999903 -0.00171177 -0.00171188
201 2 0 0.4 0 0 0 0 -0.00477921 -0.00477941 0 0.04 0.999903 -0.00171174 -0.00171183
202 2 0.2 0.4 0 0 0 0 -0.00477954 -0.00478 0 0.04 0.999903 -0.00171169 -0.00171168
203 2 0.4 0.4 0 0 0 0 -0.00477891 -0.00477953 0 0.04 0.999903 -0.00171181 -0.00171176
4 2 0.6 0 0 0 0 0 7.20199e-07 -0.00477914 0 0.04 0.999903 -0.00362339 -0.00171166
5 2 0.8 0 0 0 0 0 8.76517e-07 -0.00477951 0 0.04 0.999903 -0.00362348 -0.0017118
104 2 0.6 0.2 0 0 0 0 -1.97656e-07 -0.00477907 0 0.04 0.999903 -0.00362345 -0.00171193
105 2 0.8 0.2 0 0 0 0 -1.55232e-07 -0.00477964 0 0.04 0.999903 -0.00362356 -0.0017119
204 2 0.6 0.4 0 0 0 0 -1.04939e-06 -0.00477958 0 0.04 0.999903 -0.00362344 -0.0017119
205 2 0.8 0.4 0 0 0 0 1.19755e-07 -0.00477835 0 0.04 0.999903 -0.00362355 -0.00171178
6 2 1 0 0 0 0 0 -5.49432e-07 -0.00477999 0 0.04 0.999903 -0.00362347 -0.00171179
7 2 1.2 0 0 0 0 0 0.00477936 -0.00477937 0 0.04 0.999903 -0.00171168 -0.00171159
8 2 1.4 0 0 0 0 0 -2.02002e-07 -0.0047797 0 0.04 0.999903 -0.00362337 -0.00171171
106 2 1 0.2 0 0 0 0 -2.77366e-07 -0.00477895 0 0.04 0.999903 -0.00362347 -0.00171184
107 2 1.2 0.2 0 0 0 0 0.00477941 -0.00477791 0 0.04 0.999903 -0.00171172 -0.00171177
108 2 1.4 0.2 0 0 0 0 -6.59761e-08 -0.00477838 0 0.04 0.999903 -0.00362348 -0.00171168
206 2 1 0.4 0 0 0 0 7.67963e-07 -0.00478024 0 0.04 0.999903 -0.00362351 -0.00171176
207 2 1.2 0.4 0 0 0 0 0.00477964 -0.00477987 0 0.04 0.999903 -0.00171183 -0.00171178
208 2 1.4 0.4 0 0 0 0 -3.9199e-07 -0.0047795 0 0.04 0.999903 -0.00362344 -0.00171159
9 2 1.6 0 0 0 0 0 -2.69583e-07 -0.0047788 0 0.04 0.999903 -0.00362352 -0.00171178
10 2 1.8 0 0 0 0 0 -1.32228e-08 -0.00477919 0 0.04 0.999903 -0.0036235 -0.0017118
109 2 1.6 0.2 0 0 0 0 -2.19644e-07 -0.0047801 0 0.04 0.999903 -0.00362338 -0.00171167
110 2 1.8 0.2 0 0 0 0 5.99038e-07 -0.00477915 0 0.04 0.999903 -0.00362348 -0.00171174
209 2 1.6 0.4 0 0 0 0 -5.02893e-07 -0.00477934 0 0.04 0.999903 -0.00362342 -0.00171176
210 2 1.8 0.4 0 0 0 0 4.96317e-07 -0.00477941 0 0.04 0.999903 -0.00362339 -0.0017117
11 2 2 0 0 0 0 0 -0.0047796 -0.00477918 0 0.04 0.999903 -0.00171189 -0.00171169
12 2 2.2 0 0 0 0 0 0.00477904 -0.00477893 0 0.04 0.999903 -0.00171171 -0.00171175
13 2 2.4 0 0 0 0 0 0.00477944 -0.0047796 0 0.04 0.999903 -0.00171176 -0.00171171
111 2 2 0.2 0 0 0 0 -0.00478031 -0.00477932 0 0.04 0.999903 -0.00171168 -0.0017117
112 2 2.2 0.2 0 0 0 0 0.00477953 -0.00477958 0 0.04 0.999903 -0.00171179 -0.0017117
113 2 2.4 0.2 0 0 0 0 0.00477891 -0.00477868 0 0.04 0.999903 -0.00171179 -0.00171183
211 2 2 0.4 0 0 0 0 -0.00477973 -0.00477923 0 0.04 0.999903 -0.00171186 -0.00171181
212 2 2.2 0.4 0 0 0 0 0.00477956 -0.00477914 0 0.04 0.999903 -0.00171183 -0.00171184
213 2 2.4 0.4 0 0 0 0 0.0047785 -0.00477883 0 0.04 0.999903 -0.00171167 -0.00171168
14 2 2.6 0 0 0 0 0 -6.32299e-07 -0.00477923 0 0.04 0.999903 -0.00362354 -0.00171168
15 2 2.8 0 0 0 0 0 0.00477923 -0.00477867 0 0.04 0.999903 -0.0017118 -0.00171165
114 2 2.6 0.2 0 0 0 0 1.56894e-07 -0.00477969 0 0.04 0.999903 -0.00362341 -0.00171176
115 2 2.8 0.2 0 0 0 0 0.00477923 -0.00477885 0 0.04 0.999903 -0.00171184 -0.00171183
214 2 2.6 0.4 0 0 0 0 7.0502e-08 -0.00477915 0 0.04 0.999903 -0.00362336 -0.00171162
215 2 2.8 0.4 0 0 0 0 0.00477949 -0.00478049 0 0.04 0.999903 -0.00171198 -0.00171182
16 2 3 0 0 0 0 0 -0.00477872 -0.00477929 0 0.04 0.999903 -0.00171188 -0.00171178
17 2 3.2 0 0 0 0 0 5.8717e-07 -0.00477955 0 0.04 0.999903 0.000200024 -0.00171172
18 2 3.4 0 0 0 0 0 0.00477982 -0.00477875 0 0.04 0.999903 -0.00171177 -0.00171188
116 2 3 0.2 0 0 0 0 -0.00478032 -0.00477892 0 0.04 0.999903 -0.00171168 -0.00171168
117 2 3.2 0.2 0 0 0 0 2.91222e-07 -0.00477928 0 0.04 0.999903 0.0002 -0.00171163
118 2 3.4 0.2 0 0 0 0 0.00477978 -0.00477929 0 0.04 0.999903 -0.00171188 -0.00171177
216 2 3 0.4 0 0 0 0 -0.00477847 -0.004779 0 0.04 0.999903 -0.00171171 -0.00171176
217 2 3.2 0.4 0 0 0 0 2.18918e-07 -0.00477995 0 0.04 0.999903 0.000199939 -0.00171179
218 2 3.4 0.4 0 0 0 0 0.0047789 -0.00477932 0 0.04 0.999903 -0.0017117 -0.00171177
19 2 3.6 0 0 0 0 0 -0.00477907 -0.00477892 0 0.04 0.999903 -0.00171178 -0.00171183
20 2 3.8 0 0 0 0 0 5.30923e-07 -0.00477919 0 0.04 0.999903 -0.00362358 -0.00171176
119 2 3.6 0.2 0 0 0 0 -0.00477962 -0.00477834 0 0.04 0.999903 -0.00171172 -0.00171162
120 2 3.8 0.2 0 0 0 0 -2.03731e-07 -0.0047792 0 0.04 0.999903 -0.00362345 -0.0017118
219 2 3.6 0.4 0 0 0 0 -0.00477989 -0.00478035 0 0.04 0.999903 -0.00171179 -0.00171166
220 2 3.8 0.4 0 0 0 0 6.51279e-08 -0.0047795 0 0.04 0.999903 -0.00362339 -0.00171175
21 2 4 0 0 0 0 0 -0.00477922 -0.00477867 0 0.04 0.999903 -0.0017117 -0.00171171
22 2 4.2 0 0 0 0 0 6.20172e-07 -0.0047783 0 0.04 0.999903 0.000199896 -0.00171181
121 2 4 0.2 0 0 0 0 -0.00477891 -0.00478006 0 0.04 0.999903 -0.00171179 -0.00171177
122 2 4.2 0.2 0 0 0 0 -8.96799e-08 -0.00477874 0 0.04 0.999903 0.000199903 -0.00171178
221 2 4 0.4 0 0 0 0 -0.00477887 -0.00477908 0 0.04 0.999903 -0.00171171 -0.00171178
222 2 4.2 0.4 0 0 0 0 7.21043e-07 -0.00477974 0 0.04 0.999903 0.000199939 -0.00171164
23 2 4.4 0 0 0 0 0 0.00477914 -0.00478001 0 0.04 0.999903 -0.00171169 -0.00171179
24 2 4.6 0 0 0 0 0 0.0047784 -0.00477899 0 0.04 0.999903 -0.00171168 -0.00171167
25 2 4.8 0 0 0 0 0 0.00477986 -0.00477912 0 0.04 0.999903 -0.00171199 -0.0017119
123 2 4.4 0.2 0 0 0 0 0.00477877 -0.0047792 0 0.04 0.999903 -0.00171168 -0.00171177
124 2 4.6 0.2 0 0 0 0 0.00477991 -0.00477886 0 0.04 0.999903 -0.00171191 -0.00171187
125 2 4.8 0.2 0 0 0 0 0.00477881 -0.00477916 0 0.04 0.999903 -0.0017117 -0.00171167
223 2 4.4 0.4 0 0 0 0 0.00477965 -0.00477872 0 0.04 0.999903 -0.00171176 -0.00171169
224 2 4.6 0.4 0 0 0 0 0.00477914 -0.00477988 0 0.04 0.999903 -0.00171176 -0.00171169
225 2 4.8 0.4 0 0 0 0 0.00477858 -0.00477907 0 0.04 0.999903 -0.00171154 -0.00171159
26 2 5 0 0 0 0 0 -0.00477927 -0.00477946 0 0.04 0.999903 -0.00171175 -0.00171163
27 2 5.2 0 0 0 0 0 2.9185e-07 -0.00477938 0 0.04 0.999903 0.000199954 -0.0017118
126 2 5 0.2 0 0 0 0 -0.00477945 -0.00477941 0 0.04 0.999903 -0.00171173 -0.0017118
127 2 5.2 0.2 0 0 0 0 1.72713e-07 -0.00477896 0 0.04 0.999903 0.000199922 -0.0017118
226 2 5 0.4 0 0 0 0 -0.00477971 -0.00477886 0 0.04 0.999903 -0.00171169 -0.00171181
227 2 5.2 0.4 0 0 0 0 -1.51634e-07 -0.00477866 0 0.04 0.999903 0.000199903 -0.00171176
28 2 5.4 0 0 0 0 0 4.01966e-09 -0.00477899 0 0.04 0.999903 0.000199938 -0.00171178
29 2 5.6 0 0 0 0 0 7.39361e-07 -0.00477946 0 0.04 0.999903 0.000199921 -0.00171177
30 2 5.8 0 0 0 0 0 0.00477937 -0.00477879 0 0.04 0.999903 -0.00171172 -0.00171188
128 2 5.4 0.2 0 0 0 0 -1.94947e-07 -0.00477847 0 0.04 0.999903 0.000199895 -0.00171174
129 2 5.6 0.2 0 0 0 0 2.59611e-07 -0.00477905 0 0.04 0.999903 0.00020009 -0.00171156
130 2 5.8 0.2 0 0 0 0 0.00477991 -0.00477917 0 0.04 0.999903 -0.00171175 -0.00171187
228 2 5.4 0.4 0 0 0 0 6.46586e-07 -0.0047796 0 0.04 0.999903 0.000200076 -0.0017117
229 2 5.6 0.4 0 0 0 0 4.29642e-07 -0.0047793 0 0.04 0.999903 0.000199918 -0.0017117
230 2 5.8 0.4 0 0 0 0 0.00477899 -0.00477917 0 0.04 0.999903 -0.00171172 -0.00171167
31 2 6 0 0 0 0 0 -0.00477932 -0.00477964 0 0.04 0.999903 -0.0017116 -0.00171167
32 2 6.2 0 0 0 0 0 -3.74165e-07 -0.00477868 0 0.04 0.999903 0.000200015 -0.00171167
131 2 6 0.2 0 0 0 0 -0.00478015 -0.00477973 0 0.04 0.999903 -0.0017116 -0.00171171
132 2 6.2 0.2 0 0 0 0 5.03423e-07 -0.00477932 0 0.04 0.999903 0.00019988 -0.00171174
231 2 6 0.4 0 0 0 0 -0.00478034 -0.00477882 0 0.04 0.999903 -0.00171168 -0.0017117
232 2 6.2 0.4 0 0 0 0 -9.00767e-08 -0.00477943 0 0.04 0.999903 0.000199934 -0.00171171
33 2 6.4 0 0 0 0 0 -7.68134e-07 -0.00477905 0 0.04 0.999903 0.000199838 -0.00171165
34 2 6.6 0 0 0 0 0 5.18062e-07 -0.00477974 0 0.04 0.999903 0.0002 -0.00171168
35 2 6.8 0 0 0 0 0 0.0047792 -0.00477941 0 0.04 0.999903 -0.00171187 -0.00171184
133 2 6.4 0.2 0 0 0 0 -4.2942e-08 -0.00478035 0 0.04 0.999903 0.000199943 -0.0017118
134 2 6.6 0.2 0 0 0 0 -3.55662e-07 -0.00477851 0 0.04 0.999903 0.000200127 -0.00171174
135 2 6.8 0.2 0 0 0 0 0.00477921 -0.00477873 0 0.04 0.999903 -0.0017117 -0.00171159
233 2 6.4 0.4 0 0 0 0 -2.18536e-07 -0.00478025 0 0.04 0.999903 0.000199911 -0.00171187
234 2 6.6 0.4 0 0 0 0 5.5928e-07 -0.00477884 0 0.04 0.999903 0.00019991 -0.00171178
235 2 6.8 0.4 0 0 0 0 0.00477962 -0.00477888 0 0.04 0.999903 -0.00171183 -0.00171158
36 2 7 0 0 0 0 0 -0.00477988 -0.00478004 0 0.04 0.999903 -0.0017118 -0.00171173
37 2 7.2 0 0 0 0 0 4.25601e-07 -0.00477936 0 0.04 0.999903 0.000199857 -0.00171193
136 2 7 0.2 0 0 0 0 -0.00477945 -0.00477938 0 0.04 0.999903 -0.00171179 -0.0017117
137 2 7.2 0.2 0 0 0 0 1.15948e-07 -0.00477877 0 0.04 0.999903 0.000199963 -0.00171172
236 2 7 0.4 0 0 0 0 -0.0047796 -0.00477881 0 0.04 0.999903 -0.00171174 -0.00171174
237 2 7.2 0.4 0 0 0 0 -1.66168e-07 -0.00477846 0 0.04 0.999903 0.000199852 -0.0017118
38 2 7.4 0 0 0 0 0 -0.00477945 -0.00477906 0 0.04 0.999903 -0.00171183 -0.00171183
39 2 7.6 0 0 0 0 0 1.26862e-06 -0.00477924 0 0.04 0.999903 0.000200006 -0.00171173
40 2 7.8 0 0 0 0 0 0.00477865 -0.0047795 0 0.04 0.999903 -0.00171175 -0.00171175
138 2 7.4 0.2 0 0 0 0 -0.0047786 -0.00477964 0 0.04 0.999903 -0.00171176 -0.00171184
139 2 7.6 0.2 0 0 0 0 2.30482e-08 -0.00477947 0 0.04 0.999903 0.000199936 -0.00171167
140 2 7.8 0.2 0 0 0 0 0.00477894 -0.00477904 0 0.04 0.999903 -0.00171181 -0.0017118
238 2 7.4 0.4 0 0 0 0 -0.00477899 -0.00477916 0 0.04 0.999903 -0.00171182 -0.00171177
239 2 7.6 0.4 0 0 0 0 3.56743e-07 -0.00477871 0 0.04 0.999903 0.000199978 -0.00171173
240 2 7.8 0.4 0 0 0 0 0.00477872 -0.00477948 0 0.04 0.999903 -0.00171173 -0.00171169
41 2 8 0 0 0 0 0 -0.00477923 -0.00477938 0 0.04 0.999903 -0.00171176 -0.00171183
42 2 8.2 0 0 0 0 0 0.00477885 -0.00477937 0 0.04 0.999903 -0.00171164 -0.00171175
141 2 8 0.2 0 0 0 0 -0.00477899 -0.0047793 0 0.04 0.999903 -0.00171181 -0.00171175
142 2 8.2 0.2 0 0 0 0 0.0047793 -0.00477983 0 0.04 0.999903 -0.00171174 -0.00171161
241 2 8 0.4 0 0 0 0 -0.00477898 -0.00477914 0 0.04 0.999903 -0.00171177 -0.00171171
242 2 8.2 0.4 0 0 0 0 0.0047794 -0.00477919 0 0.04 0.999903 -0.00171169 -0.00171184
43 2 8.4 0 0 0 0 0 -0.00477839 -0.00477903 0 0.04 0.999903 -0.00171174 -0.00171175
44 2 8.6 0 0 0 0 0 -0.00477899 -0.00477869 0 0.04 0.999903 -0.00171172 -0.00171181
143 2 8.4 0.2 0 0 0 0 -0.00477898 -0.00477889 0 0.04 0.999903 -0.00171183 -0.00171181
144 2 8.6 0.2 0 0 0 0 -0.00477915 -0.00477993 0 0.04 0.999903 -0.00171176 -0.00171159
243 2 8.4 0.4 0 0 0 0 -0.00477991 -0.00477954 0 0.04 0.999903 -0.0017118 -0.00171177
244 2 8.6 0.4 0 0 0 0 -0.00477903 -0.0047791 0 0.04 0.999903 -0.00171172 -0.00171186
45 2 8.8 0 0 0 0 0 -4.09366e-07 -0.00477906 0 0.04 0.999903 -0.00362327 -0.0017117
46 2 9 0 0 0 0 0 -0.00477958 -0.00477905 0 0.04 0.999903 -0.00171187 -0.00171187
47 2 9.2 0 0 0 0 0 0.00477961 -0.0047791 0 0.04 0.999903 -0.00171192 -0.00171182
145 2 8.8 0.2 0 0 0 0 -8.64272e-07 -0.00477898 0 0.04 0.999903 -0.00362341 -0.00171174
146 2 9 0.2 0 0 0 0 -0.00477874 -0.00477919 0 0.04 0.999903 -0.00171174 -0.0017118
147 2 9.2 0.2 0 0 0 0 0.00477898 -0.00477906 0 0.04 0.999903 -0.00171163 -0.00171174
245 2 8.8 0.4 0 0 0 0 5.24461e-07 -0.00477907 0 0.04 0.999903 -0.00362337 -0.00171177
246 2 9 0.4 0 0 0 0 -0.00477966 -0.00477892 0 0.04 0.999903 -0.0017118 -0.0017117
247 2 9.2 0.4 0 0 0 0 0.00477894 -0.00477953 0 0.04 0.999903 -0.00171185 -0.00171156
48 2 9.4 0 0 0 0 0 7.61879e-07 -0.00477947 0 0.04 0.999903 -0.00362349 -0.00171179
49 2 9.6 0 0 0 0 0 0.00478023 -0.00477952 0 0.04 0.999903 -0.00171173 -0.00171163
148 2 9.4 0.2 0 0 0 0 7.73452e-07 -0.00477951 0 0.04 0.999903 -0.0036234 -0.00171183
149 2 9.6 0.2 0 0 0 0 0.00477839 -0.00477912 0 0.04 0.999903 -0.00171184 -0.00171186
248 2 9.4 0.4 0 0 0 0 1.4502e-07 -0.00477917 0 0.04 0.999903 -0.00362337 -0.00171176
249 2 9.6 0.4 0 0 0 0 0.00477881 -0.00477877 0 0.04 0.999903 -0.00171176 -0.00171173
50 2 9.8 0 0 0 0 0 -6.15394e-07 -0.00477889 0 0.04 0.999903 -0.00362352 -0.00171173
51 2 10 0 0 0 0 0 -0.00477879 -0.00477926 0 0.04 0.999903 -0.00171178 -0.00171179
52 2 10.2 0 0 0 0 0 0.00478006 -0.00477857 0 0.04 0.999903 -0.00171164 -0.00171175
150 2 9.8 0.2 0 0 0 0 5.36011e-07 -0.00477893 0 0.04 0.999903 -0.00362338 -0.00171178
151 2 10 0.2 0 0 0 0 -0.00477886 -0.00477856 0 0.04 0.999903 -0.00171184 -0.0017118
152 2 10.2 0.2 0 0 0 0 0.00477861 -0.0047785 0 0.04 0.999903 -0.00171171 -0.00171175
250 2 9.8 0.4 0 0 0 0 -4.87584e-07 -0.00477933 0 0.04 0.999903 -0.00362341 -0.00171182
251 2 10 0.4 0 0 0 0 -0.00477842 -0.0047799 0 0.04 0.999903 -0.0017117 -0.00171172
252 2 10.2 0.4 0 0 0 0 0.00477922 -0.00477873 0 0.04 0.999903 -0.00171158 -0.00171163
53 2 10.4 0 0 0 0 0 -0.00477867 -0.0047788 0 0.04 0.999903 -0.00171179 -0.0017118
54 2 10.6 0 0 0 0 0 0.00477876 -0.00477854 0 0.04 0.999903 -0.00171181 -0.00171175
153 2 10.4 0.2 0 0 0 0 -0.00477959 -0.00477907 0 0.04 0.999903 -0.00171177 -0.00171171
154 2 10.6 0.2 0 0 0 0 0.00477899 -0.00477927 0 0.04 0.999903 -0.00171172 -0.00171169
253 2 10.4 0.4 0 0 0 0 -0.00477945 -0.00477979 0 0.04 0.999903 -0.00171171 -0.00171185
254 2 10.6 0.4 0 0 0 0 0.00477894 -0.00478012 0 0.04 0.999903 -0.0017118 -0.00171182
55 2 10.8 0 0 0 0 0 -2.17077e-07 -0.00477951 0 0.04 0.999903 -0.00362345 -0.00171165
56 2 11 0 0 0 0 0 -0.00478001 -0.00477957 0 0.04 0.999903 -0.00171193 -0.00171179
57 2 11.2 0 0 0 0 0 0.00477868 -0.00477988 0 0.04 0.999903 -0.00171181 -0.00171171
155 2 10.8 0.2 0 0 0 0 3.12711e-07 -0.00477911 0 0.04 0.999903 -0.00362331 -0.00171162
156 2 11 0.2 0 0 0 0 -0.0047797 -0.00477876 0 0.04 0.999903 -0.00171188 -0.00171174
157 2 11.2 0.2 0 0 0 0 0.00477949 -0.00477966 0 0.04 0.999903 -0.00171178 -0.00171188
255 2 10.8 0.4 0 0 0 0 -8.35787e-08 -0.00477885 0 0.04 0.999903 -0.00362346 -0.00171166
256 2 11 0.4 0 0 0 0 -0.00477929 -0.00477937 0 0.04 0.999903 -0.00171165 -0.00171165
257 2 11.2 0.4 0 0 0 0 0.00477932 -0.00477846 0 0.04 0.999903 -0.00171174 -0.00171168
58 2 11.4 0 0 0 0 0 -0.00477868 -0.00477893 0 0.04 0.999903 -0.00171169 -0.00171174
59 2 11.6 0 0 0 0 0 0.00477963 -0.00477933 0 0.04 0.999903 -0.00171167 -0.00171156
158 2 11.4 0.2 0 0 0 0 -0.00478019 -0.00477961 0 0.04 0.999903 -0.00171177 -0.00171172
159 2 11.6 0.2 0 0 0 0 0.0047797 -0.00477918 0 0.04 0.999903 -0.00171168 -0.00171175
258 2 11.4 0.4 0 0 0 0 -0.00477876 -0.00477921 0 0.04 0.999903 -0.00171189 -0.00171193
259 2 11.6 0.4 0 0 0 0 0.00477993 -0.00477932 0 0.04 0.999903 -0.00171174 -0.00171165
60 2 11.8 0 0 0 0 0 2.63596e-07 -0.00477953 0 0.04 0.999903 -0.00362342 -0.0017117
61 2 12 0 0 0 0 0 -0.00477943 -0.00477893 0 0.04 0.999903 -0.00171179 -0.00171179
160 2 11.8 0.2 0 0 0 0 6.96112e-08 -0.00478004 0 0.04 0.999903 -0.00362354 -0.00171171
161 2 12 0.2 0 0 0 0 -0.00477984 -0.00477846 0 0.04 0.999903 -0.00171174 -0.0017118
260 2 11.8 0.4 0 0 0 0 2.51364e-07 -0.00477934 0 0.04 0.999903 -0.00362345 -0.0017118
261 2 12 0.4 0 0 0 0 -0.00477915 -0.00477944 0 0.04 0.999903 -0.00171161 -0.00171188
62 2 12.2 0 0 0 0 0 0.00477916 -0.0047793 0 0.04 0.999903 -0.00171165 -0.00171181
63 2 12.4 0 0 0 0 0 -0.0047794 -0.00477926 0 0.04 0.999903 -0.00171174 -0.0017116
64 2 12.6 0 0 0 0 0 0.0047792 -0.00477986 0 0.04 0.999903 -0.00171168 -0.00171175
162 2 12.2 0.2 0 0 0 0 0.00477904 -0.00477942 0 0.04 0.999903 -0.00171189 -0.00171187
163 2 12.4 0.2 0 0 0 0 -0.00477842 -0.00477962 0 0.04 0.999903 -0.00171169 -0.00171173
164 2 12.6 0.2 0 0 0 0 0.00477842 -0.00477898 0 0.04 0.999903 -0.00171172 -0.00171177
262 2 12.2 0.4 0 0 0 0 0.0047793 -0.00477926 0 0.04 0.999903 -0.00171165 -0.0017118
263 2 12.4 0.4 0 0 0 0 -0.00477959 -0.00477936 0 0.04 0.999903 -0.00171175 -0.00171174
264 2 12.6 0.4 0 0 0 0 0.00477959 -0.00477925 0 0.04 0.999903 -0.00171182 -0.00171179
65 2 12.8 0 0 0 0 0 -2.52236e-07 -0.00477858 0 0.04 0.999903 -0.00362349 -0.00171175
66 2 13 0 0 0 0 0 -0.00477957 -0.00478023 0 0.04 0.999903 -0.00171183 -0.00171171
165 2 12.8 0.2 0 0 0 0 2.52318e-07 -0.00477864 0 0.04 0.999903 -0.0036234 -0.00171182
166 2 13 0.2 0 0 0 0 -0.00478028 -0.00477903 0 0.04 0.999903 -0.00171175 -0.0017119
265 2 12.8 0.4 0 0 0 0 -1.08401e-06 -0.00477846 0 0.04 0.999903 -0.00362347 -0.00171178
266 2 13 0.4 0 0 0 0 -0.00477904 -0.00477958 0 0.04 0.999903 -0.00171178 -0.0017118
67 2 13.2 0 0 0 0 0 0.00477927 -0.0047782 0 0.04 0.999903 -0.0017118 -0.00171178
68 2 13.4 0 0 0 0 0 -0.00477976 -0.00477943 0 0.04 0.999903 -0.00171191 -0.00171161
69 2 13.6 0 0 0 0 0 0.00477979 -0.00478061 0 0.04 0.999903 -0.00171185 -0.00171178
167 2 13.2 0.2 0 0 0 0 0.0047792 -0.00477895 0 0.04 0.999903 -0.00171177 -0.00171169
168 2 13.4 0.2 0 0 0 0 -0.00477946 -0.00477991 0 0.04 0.999903 -0.0017119 -0.00171186
169 2 13.6 0.2 0 0 0 0 0.00477889 -0.00477909 0 0.04 0.999903 -0.00171174 -0.00171173
267 2 13.2 0.4 0 0 0 0 0.00477943 -0.00477989 0 0.04 0.999903 -0.0017118 -0.00171167
268 2 13.4 0.4 0 0 0 0 -0.00477895 -0.00477895 0 0.04 0.999903 -0.00171155 -0.00171164
269 2 13.6 0.4 0 0 0 0 0.00477888 -0.00477892 0 0.04 0.999903 -0.00171178 -0.00171178
70 2 13.8 0 0 0 0 0 1.18805e-07 -0.00477873 0 0.04 0.999903 -0.00362351 -0.00171181
71 2 14 0 0 0 0 0 -0.00477931 -0.00478029 0 0.04 0.999903 -0.00171177 -0.00171166
170 2 13.8 0.2 0 0 0 0 -1.89099e-07 -0.00477974 0 0.04 0.999903 -0.00362361 -0.00171182
171 2 14 0.2 0 0 0 0 -0.00477867 -0.00477835 0 0.04 0.999903 -0.00171184 -0.0017118
270 2 13.8 0.4 0 0 0 0 1.6212e-07 -0.00477812 0 0.04 0.999903 -0.00362348 -0.00171175
271 2 14 0.4 0 0 0 0 -0.00477918 -0.00477951 0 0.04 0.999903 -0.00171168 -0.00171183
72 2 14.2 0 0 0 0 0 0.00477928 -0.00477911 0 0.04 0.999903 -0.00171179 -0.00171171
73 2 14.4 0 0 0 0 0 -0.00477963 -0.00477999 0 0.04 0.999903 -0.00171178 -0.00171168
74 2 14.6 0 0 0 0 0 0.00477983 -0.00477863 0 0.04 0.999903 -0.00171171 -0.00171174
172 2 14.2 0.2 0 0 0 0 0.00477987 -0.00477905 0 0.04 0.999903 -0.0017118 -0.00171179
173 2 14.4 0.2 0 0 0 0 -0.00477922 -0.00477951 0 0.04 0.999903 -0.00171177 -0.00171174
174 2 14.6 0.2 0 0 0 0 0.00477954 -0.00477836 0 0.04 0.999903 -0.00171188 -0.00171159
272 2 14.2 0.4 0 0 0 0 0.00477874 -0.00477942 0 0.04 0.999903 -0.00171181 -0.00171176
273 2 14.4 0.4 0 0 0 0 -0.00478003 -0.00477931 0 0.04 0.999903 -0.00171169 -0.00171171
274 2 14.6 0.4 0 0 0 0 0.00477994 -0.00477979 0 0.04 0.999903 -0.00171183 -0.00171175
75 2 14.8 0 0 0 0 0 -3.07332e-07 -0.00477949 0 0.04 0.999903 -0.00362346 -0.00171189
76 2 15 0 0 0 0 0 -0.00478007 -0.00477933 0 0.04 0.999903 -0.00171171 -0.00171169
175 2 14.8 0.2 0 0 0 0 -9.37862e-08 -0.00477891 0 0.04 0.999903 -0.00362348 -0.00171182
176 2 15 0.2 0 0 0 0 -0.00477928 -0.00477871 0 0.04 0.999903 -0.0017118 -0.00171188
275 2 14.8 0.4 0 0 0 0 5.40568e-07 -0.00477945 0 0.04 0.999903 -0.00362338 -0.00171175
276 2 15 0.4 0 0 0 0 -0.00477859 -0.00477944 0 0.04 0.999903 -0.00171182 -0.00171178
77 2 15.2 0 0 0 0 0 0.00478028 -0.00477915 0 0.04 0.999903 -0.00171173 -0.00171175
78 2 15.4 0 0 0 0 0 2.3114e-07 -0.00477936 0 0.04 0.999903 0.000199797 -0.00171174
79 2 15.6 0 0 0 0 0 -6.68949e-07 -0.00477855 0 0.04 0.999903 -0.0036235 -0.00171181
177 2 15.2 0.2 0 0 0 0 0.00477858 -0.00477837 0 0.04 0.999903 -0.00171174 -0.00171182
178 2 15.4 0.2 0 0 0 0 5.81861e-08 -0.00477947 0 0.04 0.999903 0.000199922 -0.00171166
179 2 15.6 0.2 0 0 0 0 1.31984e-07 -0.00477944 0 0.04 0.999903 -0.00362348 -0.0017118
277 2 15.2 0.4 0 0 0 0 0.00477903 -0.0047796 0 0.04 0.999903 -0.00171175 -0.0017118
278 2 15.4 0.4 0 0 0 0 -3.38474e-07 -0.00477897 0 0.04 0.999903 0.000199853 -0.00171187
279 2 15.6 0.4 0 0 0 0 3.44685e-07 -0.00477951 0 0.04 0.999903 -0.00362339 -0.00171174
80 2 15.8 0 0 0 0 0 5.23205e-07 -0.00477895 0 0.04 0.999903 -0.00362356 -0.00171171
81 2 16 0 0 0 0 0 -0.0047789 -0.00477986 0 0.04 0.999903 -0.00171185 -0.00171187
180 2 15.8 0.2 0 0 0 0 4.16656e-07 -0.00478036 0 0.04 0.999903 -0.00362343 -0.00171176
181 2 16 0.2 0 0 0 0 -0.0047792 -0.0047797 0 0.04 0.999903 -0.00171172 -0.00171172
280 2 15.8 0.4 0 0 0 0 -8.15016e-08 -0.00477869 0 0.04 0.999903 -0.00362336 -0.00171177
281 2 16 0.4 0 0 0 0 -0.00477934 -0.00477801 0 0.04 0.999903 -0.00171167 -0.00171185
82 2 16.2 0 0 0 0 0 -0.00477955 -0.00477799 0 0.04 0.999903 -0.00171183 -0.00171183
83 2 16.4 0 0 0 0 0 0.00477852 -0.00477939 0 0.04 0.999903 -0.00171175 -0.00171168
182 2 16.2 0.2 0 0 0 0 -0.0047791 -0.0047793 0 0.04 0.999903 -0.00171166 -0.00171182
183 2 16.4 0.2 0 0 0 0 0.00477882 -0.00477825 0 0.04 0.999903 -0.00171168 -0.00171183
282 2 16.2 0.4 0 0 0 0 -0.00477939 -0.00477945 0 0.04 0.999903 -0.00171167 -0.00171166
283 2 16.4 0.4 0 0 0 0 0.00477931 -0.00478045 0 0.04 0.999903 -0.0017117 -0.00171169
84 2 16.6 0 0 0 0 0 -4.7899e-07 -0.0047794 0 0.04 0.999903 -0.00362357 -0.00171183
85 2 16.8 0 0 0 0 0 4.06254e-07 -0.00477829 0 0.04 0.999903 -0.00362339 -0.00171173
86 2 17 0 0 0 0 0 -3.32909e-07 -0.00477891 0 0.04 0.999903 -0.00362339 -0.00171175
184 2 16.6 0.2 0 0 0 0 5.31048e-07 -0.00477941 0 0.04 0.999903 -0.00362337 -0.00171176
185 2 16.8 0.2 0 0 0 0 1.13956e-07 -0.00477972 0 0.04 0.999903 -0.00362351 -0.00171178
186 2 17 0.2 0 0 0 0 -6.61491e-08 -0.00477959 0 0.04 0.999903 -0.00362335 -0.00171166
284 2 16.6 0.4 0 0 0 0 -1.05952e-06 -0.00477903 0 0.04 0.999903 -0.00362334 -0.00171178
285 2 16.8 0.4 0 0 0 0 -5.37908e-08 -0.0047791 0 0.04 0.999903 -0.00362356 -0.0017117
286 2 17 0.4 0 0 0 0 -3.2128e-07 -0.00477899 0 0.04 0.999903 -0.00362336 -0.00171163
87 2 17.2 0 0 0 0 0 -0.00477957 -0.00477953 0 0.04 0.999903 -0.00171165 -0.0017117
88 2 17.4 0 0 0 0 0 0.00477975 -0.00477851 0 0.04 0.999903 -0.00171191 -0.00171188
187 2 17.2 0.2 0 0 0 0 -0.00477984 -0.00477953 0 0.04 0.999903 -0.00171182 -0.00171178
188 2 17.4 0.2 0 0 0 0 0.00477923 -0.0047794 0 0.04 0.999903 -0.00171176 -0.00171187
287 2 17.2 0.4 0 0 0 0 -0.0047799 -0.00477821 0 0.04 0.999903 -0.00171177 -0.00171174
288 2 17.4 0.4 0 0 0 0 0.00477998 -0.0047796 0 0.04 0.999903 -0.00171178 -0.0017118
89 2 17.6 0 0 0 0 0 -6.60143e-07 -0.00477981 0 0.04 0.999903 -0.00362348 -0.0017119
90 2 17.8 0 0 0 0 0 -2.76281e-07 -0.00477822 0 0.04 0.999903 -0.00362339 -0.00171175
91 2 18 0 0 0 0 0 9.14255e-07 -0.00477978 0 0.04 0.999903 -0.00362343 -0.00171171
189 2 17.6 0.2 0 0 0 0 -2.29029e-07 -0.00477936 0 0.04 0.999903 -0.00362338 -0.00171166
190 2 17.8 0.2 0 0 0 0 9.16103e-07 -0.00477918 0 0.04 0.999903 -0.00362351 -0.00171178
191 2 18 0.2 0 0 0 0 -1.14729e-07 -0.0047784 0 0.04 0.999903 -0.00362338 -0.0017118
289 2 17.6 0.4 0 0 0 0 -9.76557e-08 -0.00477886 0 0.04 0.999903 -0.00362343 -0.00171179
290 2 17.8 0.4 0 0 0 0 6.36837e-07 -0.00477918 0 0.04 0.999903 -0.00362344 -0.00171183
291 2 18 0.4 0 0 0 0 -6.98565e-07 -0.00477971 0 0.04 0.999903 -0.00362335 -0.00171154
92 2 18.2 0 0 0 0 0 -0.00477913 -0.00477933 0 0.04 0.999903 -0.00171168 -0.00171176
93 2 18.4 0 0 0 0 0 -3.37603e-07 -0.00477878 0 0.04 0.999903 -0.00362339 -0.00171164
192 2 18.2 0.2 0 0 0 0 -0.00477942 -0.00477877 0 0.04 0.999903 -0.00171168 -0.00171176
193 2 18.4 0.2 0 0 0 0 2.42287e-07 -0.00477822 0 0.04 0.999903 -0.00362333 -0.0017116
292 2 18.2 0.4 0 0 0 0 -0.00477858 -0.00477978 0 0.04 0.999903 -0.00171189 -0.00171171
293 2 18.4 0.4 0 0 0 0 1.04979e-06 -0.00477942 0 0.04 0.999903 -0.00362337 -0.0017117
94 2 18.6 0 0 0 0 0 -2.31924e-07 -0.00477922 0 0.04 0.999903 -0.00362348 -0.00171181
95 2 18.8 0 0 0 0 0 2.58102e-07 -0.00477861 0 0.04 0.999903 -0.00362342 -0.00171186
96 2 19 0 0 0 0 0 4.92975e-07 -0.00477966 0 0.04 0.999903 -0.00362344 -0.00171179
194 2 18.6 0.2 0 0 0 0 -7.38611e-07 -0.0047791 0 0.04 0.999903 -0.00362344 -0.00171183
195 2 18.8 0.2 0 0 0 0 -6.52948e-07 -0.00477856 0 0.04 0.999903 -0.00362353 -0.00171169
196 2 19 0.2 0 0 0 0 2.75638e-07 -0.00477868 0 0.04 0.999903 -0.00362345 -0.0017117
294 2 18.6 0.4 0 0 0 0 2.50183e-07 -0.00477971 0 0.04 0.999903 -0.00362341 -0.0017118
295 2 18.8 0.4 0 0 0 0 -2.89159e-07 -0.00477906 0 0.04 0.999903 -0.0036235 -0.0017117
296 2 19 0.4 0 0 0 0 -9.30375e-07 -0.00478025 0 0.04 0.999903 -0.00362349 -0.00171176
97 2 19.2 0 0 0 0 0 0.00477967 -0.00478034 0 0.04 0.999903 -0.00171182 -0.00171192
98 2 19.4 0 0 0 0 0 0.00477838 -0.00477925 0 0.04 0.999903 -0.0017117 -0.00171175
197 2 19.2 0.2 0 0 0 0 0.00477946 -0.00477949 0 0.04 0.999903 -0.00171182 -0.00171185
198 2 19.4 0.2 0 0 0 0 0.00477941 -0.00477883 0 0.04 0.999903 -0.00171179 -0.00171187
297 2 19.2 0.4 0 0 0 0 0.00478012 -0.00478009 0 0.04 0.999903 -0.00171174 -0.00171174
298 2 19.4 0.4 0 0 0 0 0.00477976 -0.00477838 0 0.04 0.999903 -0.00171182 -0.0017117
99 2 19.6 0 0 0 0 0 0.00477943 -0.0047801 0 0.04 0.999903 -0.00171171 -0.00171186
100 2 19.8 0 0 0 0 0 -1.2855e-07 -0.00477932 0 0.04 0.999903 -0.00362339 -0.00171164
199 2 19.6 0.2 0 0 0 0 0.00477933 -0.00477881 0 0.04 0.999903 -0.0017117 -0.00171181
200 2 19.8 0.2 0 0 0 0 -3.09403e-07 -0.00477893 0 0.04 0.999903 -0.00362339 -0.00171173
299 2 19.6 0.4 0 0 0 0 0.00477957 -0.0047788 0 0.04 0.999903 -0.00171167 -0.00171167
300 2 19.8 0.4 0 0 0 0 6.33134e-07 -0.0047786 0 0.04 0.999903 -0.0036236 -0.00171172
301 2 0 0.6 0 0 0 0 -0.00477982 -5.45301e-07 0 0.04 0.999903 -0.00171172 -0.00362353
302 2 0.2 0.6 0 0 0 0 -0.00477937 -2.68221e-07 0 0.04 0.999903 -0.00171191 -0.0036235
303 2 0.4 0.6 0 0 0 0 -0.0047789 2.55947e-07 0 0.04 0.999903 -0.00171177 -0.00362352
401 2 0 0.8 0 0 0 0 -0.00477854 1.51353e-07 0 0.04 0.999903 -0.00171182 -0.00362367
402 2 0.2 0.8 0 0 0 0 -0.00477867 -4.24322e-07 0 0.04 0.999903 -0.00171169 -0.00362354
403 2 0.4 0.8 0 0 0 0 -0.00477977 8.39967e-07 0 0.04 0.999903 -0.00171171 -0.00362347
304 2 0.6 0.6 0 0 0 0 -2.84283e-07 -6.15084e-08 0 0.04 0.999903 -0.00362334 -0.00362339
305 2 0.8 0.6 0 0 0 0 -6.67944e-07 -7.07743e-08 0 0.04 0.999903 -0.00362345 -0.00362351
404 2 0.6 0.8 0 0 0 0 1.51361e-07 4.1731e-07 0 0.04 0.999903 -0.00362356 -0.0036236
405 2 0.8 0.8 0 0 0 0 -6.58741e-07 -1.86426e-07 0 0.04 0.999903 -0.00362349 -0.00362344
306 2 1 0.6 0 0 0 0 2.62748e-07 3.02303e-07 0 0.04 0.999903 -0.00362358 -0.00362353
307 2 1.2 0.6 0 0 0 0 0.00477972 -7.76406e-07 0 0.04 0.999903 -0.0017118 -0.00362357
308 2 1.4 0.6 0 0 0 0 -2.19261e-07 -1.12217e-06 0 0.04 0.999903 -0.00362349 -0.00362347
406 2 1 0.8 0 0 0 0 3.43234e-07 1.14869e-06 0 0.04 0.999903 -0.0036235 -0.00362345
407 2 1.2 0.8 0 0 0 0 0.00477944 1.26917e-06 0 0.04 0.999903 -0.00171187 -0.0036235
408 2 1.4 0.8 0 0 0 0 2.00496e-07 4.49409e-07 0 0.04 0.999903 -0.00362346 -0.0036235
309 2 1.6 0.6 0 0 0 0 5.41079e-07 7.54149e-08 0 0.04 0.999903 -0.00362344 -0.00362344
310 2 1.8 0.6 0 0 0 0 5.03685e-07 -1.07155e-07 0 0.04 0.999903 -0.00362342 -0.00362347
409 2 1.6 0.8 0 0 0 0 -5.40166e-07 -1.59803e-07 0 0.04 0.999903 -0.00362345 -0.00362344
410 2 1.8 0.8 0 0 0 0 -4.71606e-07 -3.70801e-08 0 0.04 0.999903 -0.00362355 -0.00362334
311 2 2 0.6 0 0 0 0 -0.00478003 5.43379e-07 0 0.04 0.999903 -0.00171171 -0.00362344
312 2 2.2 0.6 0 0 0 0 0.00478 1.22098e-08 0 0.04 0.999903 -0.00171175 -0.00362331
313 2 2.4 0.6 0 0 0 0 0.00477843 6.89222e-07 0 0.04 0.999903 -0.00171187 -0.00362349
411 2 2 0.8 0 0 0 0 -0.00477854 -5.0283e-07 0 0.04 0.999903 -0.00171177 -0.00362352
412 2 2.2 0.8 0 0 0 0 0.00477945 -2.29857e-07 0 0.04 0.999903 -0.00171181 -0.00362345
413 2 2.4 0.8 0 0 0 0 0.00477892 -7.29212e-07 0 0.04 0.999903 -0.00171174 -0.00362341
314 2 2.6 0.6 0 0 0 0 2.23229e-07 -4.26942e-07 0 0.04 0.999903 -0.00362359 -0.00362343
315 2 2.8 0.6 0 0 0 0 0.00478012 1.20323e-06 0 0.04 0.999903 -0.00171185 -0.0036233
414 2 2.6 0.8 0 0 0 0 -1.63361e-07 3.67101e-07 0 0.04 0.999903 -0.00362363 -0.0036235
415 2 2.8 0.8 0 0 0 0 0.00477891 -1.38885e-07 0 0.04 0.999903 -0.00171184 -0.00362355
316 2 3 0.6 0 0 0 0 -0.00477888 -1.91862e-07 0 0.04 0.999903 -0.00171182 -0.00362337
317 2 3.2 0.6 0 0 0 0 -5.35379e-07 -1.50891e-07 0 0.04 0.999903 0.000199958 -0.00362363
318 2 3.4 0.6 0 0 0 0 0.00477942 -2.18103e-07 0 0.04 0.999903 -0.00171177 -0.00362346
416 2 3 0.8 0 0 0 0 -0.00477944 5.39925e-07 0 0.04 0.999903 -0.0017117 -0.00362331
417 2 3.2 0.8 0 0 0 0 -5.25211e-08 1.02659e-07 0 0.04 0.999903 0.000199846 -0.00362374
418 2 3.4 0.8 0 0 0 0 0.00477966 1.24444e-07 0 0.04 0.999903 -0.00171177 -0.00362361
319 2 3.6 0.6 0 0 0 0 -0.00478027 2.94161e-07 0 0.04 0.999903 -0.00171173 -0.00362343
320 2 3.8 0.6 0 0 0 0 4.54742e-08 2.06077e-08 0 0.04 0.999903 -0.00362358 -0.00362337
419 2 3.6 0.8 0 0 0 0 -0.00477968 -4.33682e-08 0 0.04 0.999903 -0.00171185 -0.00362348
420 2 3.8 0.8 0 0 0 0 -3.33194e-07 -3.3908e-07 0 0.04 0.999903 -0.00362338 -0.00362356
321 2 4 0.6 0 0 0 0 -0.0047785 2.44187e-08 0 0.04 0.999903 -0.00171181 -0.00362357
322 2 4.2 0.6 0 0 0 0 -1.6778e-07 -3.75641e-07 0 0.04 0.999903 0.000199976 -0.00362352
421 2 4 0.8 0 0 0 0 -0.00477941 2.53524e-07 0 0.04 0.999903 -0.0017117 -0.00362342
422 2 4.2 0.8 0 0 0 0 2.33595e-07 -3.18408e-07 0 0.04 0.999903 0.000199865 -0.00362357
323 2 4.4 0.6 0 0 0 0 0.00477913 -5.13209e-07 0 0.04 0.999903 -0.00171161 -0.00362355
324 2 4.6 0.6 0 0 0 0 0.00477933 1.26363e-07 0 0.04 0.999903 -0.00171177 -0.00362346
325 2 4.8 0.6 0 0 0 0 0.00477992 4.70006e-07 0 0.04 0.999903 -0.00171161 -0.00362347
423 2 4.4 0.8 0 0 0 0 0.00477982 -1.02092e-08 0 0.04 0.999903 -0.00171184 -0.00362357
424 2 4.6 0.8 0 0 0 0 0.00477905 2.43397e-07 0 0.04 0.999903 -0.00171172 -0.00362323
425 2 4.8 0.8 0 0 0 0 0.00477869 4.9722e-08 0 0.04 0.999903 -0.0017117 -0.00362329
326 2 5 0.6 0 0 0 0 -0.00477919 -5.98624e-07 0 0.04 0.999903 -0.00171177 -0.00362348