ITEM: TIMESTEP
0
ITEM: NUMBER OF ATOMS
10000
ITEM: BOX BOUNDS pp pp pp
0.0000000000000000e+00 2.0000000000000000e+01
0.0000000000000000e+00 2.0000000000000000e+01
0.0000000000000000e+00 2.0000000000000001e-01
ITEM: ATOMS id type x y z vx vy vz fx fy fz mass c_density c_peratom[1] c_peratom[2]
1 1 0 0 0 0 0 0 30.4111 39.9411 0 0.04 0.999903 2.93642 0.929036
2 1 0.2 0 0 0 0 0 -33.9923 -27.0812 0 0.04 0.999903 -1.2255 -5.54675
3 1 0.4 0 0 0 0 0 3.34921 -0.220995 0 0.04 0.999903 -3.14963 -5.2863
101 1 0 0.2 0 0 0 0 -23.6451 -14.9292 0 0.04 0.999903 5.74637 6.42674
102 1 0.2 0.2 0 0 0 0 22.9115 21.1304 0 0.04 0.999903 3.56448 3.98667
103 1 0.4 0.2 0 0 0 0 -35.2667 20.5345 0 0.04 0.999903 -0.729992 -5.47434
201 1 0 0.4 0 0 0 0 1.7946 -7.28408 0 0.04 0.999903 0.67754 -3.29055
202 1 0.2 0.4 0 0 0 0 -12.9727 -33.6392 0 0.04 0.999903 3.1812 3.60756
203 1 0.4 0.4 0 0 0 0 15.0652 -12.4805 0 0.04 0.999903 -2.26011 7.91487e-05
4 1 0.6 0 0 0 0 0 32.2083 4.8904 0 0.04 0.999903 3.12891 4.29679
5 1 0.8 0 0 0 0 0 39.199 -11.6172 0 0.04 0.999903 -1.17274 -1.89012
104 1 0.6 0.2 0 0 0 0 -8.83945 8.30147 0 0.04 0.999903 0.185593 -7.97484
105 1 0.8 0.2 0 0 0 0 -6.94218 -17.499 0 0.04 0.999903 -4.40631 -6.49139
204 1 0.6 0.4 0 0 0 0 -46.9303 -14.8955 0 0.04 0.999903 0.718587 -6.33387
205 1 0.8 0.4 0 0 0 0 5.35562 40.3179 0 0.04 0.999903 -4.3639 -0.981716
6 1 1 0 0 0 0 0 -24.5713 -33.1469 0 0.04 0.999903 -0.43064 -1.53803
7 1 1.2 0 0 0 0 0 4.8437 -5.12052 0 0.04 0.999903 3.2025 7.60783
8 1 1.4 0 0 0 0 0 -9.03382 -20.0058 0 0.04 0.999903 3.81896 1.9743
106 1 1 0.2 0 0 0 0 -12.4042 13.4188 0 0.04 0.999903 -0.803883 -3.86008
107 1 1.2 0.2 0 0 0 0 7.11051 60.029 0 0.04 0.999903 1.57738 -0.588426
108 1 1.4 0.2 0 0 0 0 -2.95054 39.0355 0 0.04 0.999903 -0.843852 3.21159
206 1 1 0.4 0 0 0 0 34.3444 -44.2248 0 0.04 0.999903 -2.27023 -0.294796
207 1 1.2 0.4 0 0 0 0 17.4375 -27.7002 0 0.04 0.999903 -3.20175 -1.15233
208 1 1.4 0.4 0 0 0 0 -17.5303 -10.9626 0 0.04 0.999903 0.675807 7.29637
9 1 1.6 0 0 0 0 0 -12.0561 20.1553 0 0.04 0.999903 -2.90807 -1.06924
10 1 1.8 0 0 0 0 0 -0.591341 2.51401 0 0.04 0.999903 -1.8446 -1.94182
109 1 1.6 0.2 0 0 0 0 -9.82278 -37.993 0 0.04 0.999903 3.47185 3.86454
110 1 1.8 0.2 0 0 0 0 26.7898 4.68888 0 0.04 0.999903 -1.18705 0.8935
209 1 1.6 0.4 0 0 0 0 -22.49 -4.20556 0 0.04 0.999903 1.47777 0.0202872
210 1 1.8 0.4 0 0 0 0 22.196 -7.02565 0 0.04 0.999903 3.04379 2.64325
11 1 2 0 0 0 0 0 -15.7578 3.31164 0 0.04 0.999903 -5.82869 2.94578
12 1 2.2 0 0 0 0 0 -9.36647 14.3338 0 0.04 0.999903 2.03312 0.130466
13 1 2.4 0 0 0 0 0 8.67978 -15.4243 0 0.04 0.999903 -0.307286 1.99537
111 1 2 0.2 0 0 0 0 -47.563 -3.25331 0 0.04 0.999903 3.58624 2.55408
112 1 2.2 0.2 0 0 0 0 12.319 -14.9455 0 0.04 0.999903 -1.59208 2.53295
113 1 2.4 0.2 0 0 0 0 -15.3968 25.3353 0 0.04 0.999903 -1.5541 -3.27865
211 1 2 0.4 0 0 0 0 -21.342 0.707338 0 0.04 0.999903 -4.78942 -2.60638
212 1 2.2 0.4 0 0 0 0 13.7002 4.76246 0 0.04 0.999903 -3.14633 -3.62517
213 1 2.4 0.4 0 0 0 0 -33.4707 19.0405 0 0.04 0.999903 3.7367 3.56161
14 1 2.6 0 0 0 0 0 -28.2773 0.942047 0 0.04 0.999903 -3.82669 3.56847
15 1 2.8 0 0 0 0 0 -1.05299 26.0933 0 0.04 0.999903 -1.7647 4.93769
114 1 2.6 0.2 0 0 0 0 7.01651 -19.461 0 0.04 0.999903 1.90922 -0.27799
115 1 2.8 0.2 0 0 0 0 -1.0456 17.9883 0 0.04 0.999903 -3.71814 -3.24824
214 1 2.6 0.4 0 0 0 0 3.15294 4.37247 0 0.04 0.999903 4.19858 6.19447
215 1 2.8 0.4 0 0 0 0 10.7981 -55.2537 0 0.04 0.999903 -9.98359 -2.8174
16 1 3 0 0 0 0 0 23.8751 -1.83332 0 0.04 0.999903 -5.49721 -1.22109
17 1 3.2 0 0 0 0 0 26.259 -13.4374 0 0.04 0.999903 3.56089 1.82544
18 1 3.4 0 0 0 0 0 25.4845 22.3681 0 0.04 0.999903 -0.632266 -5.34809
116 1 3 0.2 0 0 0 0 -47.7311 14.7788 0 0.04 0.999903 3.41952 3.44903
117 1 3.2 0.2 0 0 0 0 13.0238 -1.24469 0 0.04 0.999903 2.51189 5.47437
118 1 3.4 0.2 0 0 0 0 23.7009 -1.56868 0 0.04 0.999903 -5.37824 -0.433809
216 1 3 0.4 0 0 0 0 34.7577 10.9964 0 0.04 0.999903 2.07481 -0.30013
217 1 3.2 0.4 0 0 0 0 9.79031 -31.0576 0 0.04 0.999903 -0.24533 -1.41056
218 1 3.4 0.4 0 0 0 0 -15.5799 -2.90944 0 0.04 0.999903 2.41425 -0.45547
19 1 3.6 0 0 0 0 0 8.01758 14.6282 0 0.04 0.999903 -1.14726 -3.34518
20 1 3.8 0 0 0 0 0 23.7436 2.51366 0 0.04 0.999903 -5.3268 -0.306763
119 1 3.6 0.2 0 0 0 0 -16.59 40.6506 0 0.04 0.999903 1.58682 6.24591
120 1 3.8 0.2 0 0 0 0 -9.11111 2.20055 0 0.04 0.999903 0.136784 -1.87788
219 1 3.6 0.4 0 0 0 0 -28.6616 -49.3103 0 0.04 0.999903 -1.2933 4.15982
220 1 3.8 0.4 0 0 0 0 2.91261 -10.9756 0 0.04 0.999903 3.11788 0.490698
21 1 4 0 0 0 0 0 1.26113 25.995 0 0.04 0.999903 2.31366 2.17393
22 1 4.2 0 0 0 0 0 27.7349 42.5086 0 0.04 0.999903 -2.17503 -2.24499
121 1 4 0.2 0 0 0 0 15.3709 -36.3993 0 0.04 0.999903 -1.45267 -0.791358
122 1 4.2 0.2 0 0 0 0 -4.01061 22.9877 0 0.04 0.999903 -1.85196 -0.854894
221 1 4 0.4 0 0 0 0 16.9584 7.62037 0 0.04 0.999903 2.14681 -1.13511
222 1 4.2 0.4 0 0 0 0 32.246 -21.9494 0 0.04 0.999903 -0.242913 5.12838
23 1 4.4 0 0 0 0 0 -5.11812 -33.9283 0 0.04 0.999903 2.95607 -1.63282
24 1 4.6 0 0 0 0 0 -38.1125 11.7057 0 0.04 0.999903 3.43115 3.72959
25 1 4.8 0 0 0 0 0 27.217 5.64296 0 0.04 0.999903 -10.5344 -6.21866
123 1 4.4 0.2 0 0 0 0 -21.4463 2.41383 0 0.04 0.999903 3.44284 -0.455872
124 1 4.6 0.2 0 0 0 0 29.6998 17.3096 0 0.04 0.999903 -6.7244 -4.88285
125 1 4.8 0.2 0 0 0 0 -19.804 4.00467 0 0.04 0.999903 2.60591 3.88203
223 1 4.4 0.4 0 0 0 0 18.0061 23.5425 0 0.04 0.999903 -0.178715 2.93797
224 1 4.6 0.4 0 0 0 0 -4.83557 -28.3216 0 0.04 0.999903 -0.375482 2.74228
225 1 4.8 0.4 0 0 0 0 -30.0112 7.86232 0 0.04 0.999903 9.68241 7.33425
26 1 5 0 0 0 0 0 -0.702746 -9.46096 0 0.04 0.999903 0.401941 5.7702
27 1 5.2 0 0 0 0 0 13.0519 -5.76967 0 0.04 0.999903 0.429158 -1.85355
126 1 5 0.2 0 0 0 0 -9.0581 -7.17682 0 0.04 0.999903 1.35691 -2.07309
127 1 5.2 0.2 0 0 0 0 7.72396 13.0194 0 0.04 0.999903 -1.00342 -2.12993
226 1 5 0.4 0 0 0 0 -20.3978 17.6236 0 0.04 0.999903 2.84963 -2.45985
227 1 5.2 0.4 0 0 0 0 -6.7813 26.5022 0 0.04 0.999903 -1.84561 0.0519963
28 1 5.4 0 0 0 0 0 0.179765 11.4641 0 0.04 0.999903 -0.291429 -1.00961
29 1 5.6 0 0 0 0 0 33.0652 -9.17905 0 0.04 0.999903 -1.05604 -0.417699
30 1 5.8 0 0 0 0 0 5.40601 20.5216 0 0.04 0.999903 1.71727 -5.385
128 1 5.4 0.2 0 0 0 0 -8.71829 34.9198 0 0.04 0.999903 -2.18378 0.676102
129 1 5.6 0.2 0 0 0 0 11.6102 9.12248 0 0.04 0.999903 6.51792 8.66076
130 1 5.8 0.2 0 0 0 0 29.5673 3.47824 0 0.04 0.999903 0.294614 -5.27146
228 1 5.4 0.4 0 0 0 0 28.9162 -15.6633 0 0.04 0.999903 5.90643 2.46126
229 1 5.6 0.4 0 0 0 0 19.2142 -2.2953 0 0.04 0.999903 -1.16802 2.33484
230 1 5.8 0.4 0 0 0 0 -11.7074 3.6506 0 0.04 0.999903 1.75333 3.89835
31 1 6 0 0 0 0 0 -3.03333 -17.4338 0 0.04 0.999903 6.89923 3.95809
32 1 6.2 0 0 0 0 0 -16.7332 25.6411 0 0.04 0.999903 3.17818 4.07234
131 1 6 0.2 0 0 0 0 -40.4237 -21.5089 0 0.04 0.999903 6.80194 2.24704
132 1 6.2 0.2 0 0 0 0 22.5138 -3.03182 0 0.04 0.999903 -2.87271 0.856357
231 1 6 0.4 0 0 0 0 -48.543 19.2113 0 0.04 0.999903 3.35569 2.32353
232 1 6.2 0.4 0 0 0 0 -4.02835 -8.12382 0 0.04 0.999903 -0.441419 2.20334
33 1 6.4 0 0 0 0 0 -34.352 8.8276 0 0.04 0.999903 -4.72909 4.75658
34 1 6.6 0 0 0 0 0 23.1684 -21.8798 0 0.04 0.999903 2.48642 3.54496
35 1 6.8 0 0 0 0 0 -2.23068 -7.26623 0 0.04 0.999903 -4.95576 -3.91469
133 1 6.4 0.2 0 0 0 0 -1.92043 -49.0752 0 0.04 0.999903 -0.0486365 -2.02673
134 1 6.6 0.2 0 0 0 0 -15.9057 33.0008 0 0.04 0.999903 8.18634 0.906287
135 1 6.8 0.2 0 0 0 0 -1.93535 23.427 0 0.04 0.999903 2.58421 7.53565
233 1 6.4 0.4 0 0 0 0 -9.77325 -44.6957 0 0.04 0.999903 -1.46836 -4.93802
234 1 6.6 0.4 0 0 0 0 25.0118 18.3921 0 0.04 0.999903 -1.51723 -0.95917
235 1 6.8 0.4 0 0 0 0 16.5559 16.4574 0 0.04 0.999903 -3.16212 7.99893
36 1 7 0 0 0 0 0 -28.1548 -35.3945 0 0.04 0.999903 -1.8162 1.12582
37 1 7.2 0 0 0 0 0 19.0334 -4.86565 0 0.04 0.999903 -3.89015 -7.70442
136 1 7 0.2 0 0 0 0 -9.10438 -5.89215 0 0.04 0.999903 -1.4952 2.68094
137 1 7.2 0.2 0 0 0 0 5.18533 21.4469 0 0.04 0.999903 0.838556 1.60466
236 1 7 0.4 0 0 0 0 -15.7771 19.5858 0 0.04 0.999903 0.605529 0.831746
237 1 7.2 0.4 0 0 0 0 -7.43126 35.3638 0 0.04 0.999903 -4.14187 -1.74067
38 1 7.4 0 0 0 0 0 -9.05584 8.38973 0 0.04 0.999903 -3.39583 -3.31497
39 1 7.6 0 0 0 0 0 56.7344 0.258694 0 0.04 0.999903 2.76064 1.19953
40 1 7.8 0 0 0 0 0 -26.9387 -11.2789 0 0.04 0.999903 0.26398 0.358267
138 1 7.4 0.2 0 0 0 0 29.2817 -17.5575 0 0.04 0.999903 -0.359234 -3.89569
139 1 7.6 0.2 0 0 0 0 1.03075 -9.63615 0 0.04 0.999903 -0.384261 4.03476
140 1 7.8 0.2 0 0 0 0 -13.8971 9.41258 0 0.04 0.999903 -2.38174 -1.96281
238 1 7.4 0.4 0 0 0 0 11.6701 3.90182 0 0.04 0.999903 -2.8579 -0.616225
239 1 7.6 0.4 0 0 0 0 15.954 24.3849 0 0.04 0.999903 1.49473 1.00705
240 1 7.8 0.4 0 0 0 0 -23.8411 -10.3137 0 0.04 0.999903 1.20863 3.04472
41 1 8 0 0 0 0 0 0.796769 -5.70665 0 0.04 0.999903 -0.0091261 -3.42687
42 1 8.2 0 0 0 0 0 -18.0677 -5.52372 0 0.04 0.999903 5.02267 0.0932097
141 1 8 0.2 0 0 0 0 11.7746 -2.01961 0 0.04 0.999903 -2.44086 0.397228
142 1 8.2 0.2 0 0 0 0 2.16358 -26.0363 0 0.04 0.999903 0.76872 6.55383
241 1 8 0.4 0 0 0 0 12.0925 5.11021 0 0.04 0.999903 -0.765404 2.17041
242 1 8.2 0.4 0 0 0 0 6.64345 2.77475 0 0.04 0.999903 2.95915 -3.83253
43 1 8.4 0 0 0 0 0 38.3286 9.89191 0 0.04 0.999903 0.891964 0.0744098
44 1 8.6 0 0 0 0 0 11.5783 25.2451 0 0.04 0.999903 1.5893 -2.39588
143 1 8.4 0.2 0 0 0 0 12.3208 15.9346 0 0.04 0.999903 -3.28909 -2.43243
144 1 8.6 0.2 0 0 0 0 4.6205 -30.2975 0 0.04 0.999903 -0.325615 7.31378
243 1 8.4 0.4 0 0 0 0 -29.5809 -12.7635 0 0.04 0.999903 -2.1735 -0.659325
244 1 8.6 0.4 0 0 0 0 9.91205 6.56773 0 0.04 0.999903 1.49533 -4.56833
45 1 8.8 0 0 0 0 0 -18.3074 8.70826 0 0.04 0.999903 8.46306 2.55504
46 1 9 0 0 0 0 0 -14.8011 8.81865 0 0.04 0.999903 -5.20914 -5.15884
47 1 9.2 0 0 0 0 0 16.1052 6.6898 0 0.04 0.999903 -7.40328 -2.66487
145 1 8.8 0.2 0 0 0 0 -38.6514 12.1353 0 0.04 0.999903 2.09797 0.860707
146 1 9 0.2 0 0 0 0 22.8505 2.61068 0 0.04 0.999903 0.87109 -1.81917
147 1 9.2 0.2 0 0 0 0 -12.0357 8.69448 0 0.04 0.999903 5.76942 0.606437
245 1 8.8 0.4 0 0 0 0 23.4546 7.95965 0 0.04 0.999903 3.65427 -0.793726
246 1 9 0.4 0 0 0 0 -18.1756 14.8188 0 0.04 0.999903 -1.98437 2.48452
247 1 9.2 0.4 0 0 0 0 -14.1003 -12.4792 0 0.04 0.999903 -4.07412 8.95642
48 1 9.4 0 0 0 0 0 34.0722 -9.77854 0 0.04 0.999903 -1.68542 -1.46989
49 1 9.6 0 0 0 0 0 43.8353 -12.2605 0 0.04 0.999903 1.35206 5.51715
148 1 9.4 0.2 0 0 0 0 34.5898 -11.7274 0 0.04 0.999903 2.6699 -3.25752
149 1 9.6 0.2 0 0 0 0 -38.5811 5.63489 0 0.04 0.999903 -3.92425 -4.80797
248 1 9.4 0.4 0 0 0 0 6.48549 3.46831 0 0.04 0.999903 3.86769 -0.252563
249 1 9.6 0.4 0 0 0 0 -19.6058 21.581 0 0.04 0.999903 -0.19129 1.18696
50 1 9.8 0 0 0 0 0 -27.5213 16.0399 0 0.04 0.999903 -2.97967 1.33306
51 1 10 0 0 0 0 0 20.5323 -0.248309 0 0.04 0.999903 -1.0946 -1.52788
52 1 10.2 0 0 0 0 0 36.3298 30.3216 0 0.04 0.999903 5.241 0.184238
150 1 9.8 0.2 0 0 0 0 23.9712 14.5356 0 0.04 0.999903 3.5158 -0.886773
151 1 10 0.2 0 0 0 0 17.5286 30.6761 0 0.04 0.999903 -3.61732 -1.76545
152 1 10.2 0.2 0 0 0 0 -28.8173 33.7907 0 0.04 0.999903 2.12574 0.111052
250 1 9.8 0.4 0 0 0 0 -21.8054 -3.74156 0 0.04 0.999903 2.13229 -3.00627
251 1 10 0.4 0 0 0 0 37.0999 -29.0633 0 0.04 0.999903 2.3106 1.68956
252 1 10.2 0.4 0 0 0 0 -1.28261 23.1642 0 0.04 0.999903 7.99931 5.46494
53 1 10.4 0 0 0 0 0 26.0244 20.0139 0 0.04 0.999903 -1.60386 -1.98218
54 1 10.6 0 0 0 0 0 -21.9493 31.6744 0 0.04 0.999903 -2.30609 0.420768
153 1 10.4 0.2 0 0 0 0 -15.0407 8.28001 0 0.04 0.999903 -0.83958 1.96831
154 1 10.6 0.2 0 0 0 0 -11.6254 -1.01638 0 0.04 0.999903 1.47406 2.9234
253 1 10.4 0.4 0 0 0 0 -8.89675 -23.9999 0 0.04 0.999903 2.22488 -4.36612
254 1 10.6 0.4 0 0 0 0 -13.6876 -38.9142 0 0.04 0.999903 -1.78825 -2.95949
55 1 10.8 0 0 0 0 0 -9.70797 -11.8054 0 0.04 0.999903 0.494751 4.90093
56 1 11 0 0 0 0 0 -33.9076 -14.2099 0 0.04 0.999903 -7.84732 -1.57945
57 1 11.2 0 0 0 0 0 -25.485 -28.1806 0 0.04 0.999903 -2.53157 2.12719
155 1 10.8 0.2 0 0 0 0 13.9848 6.47535 0 0.04 0.999903 6.71993 5.90161
156 1 11 0.2 0 0 0 0 -20.1118 21.9062 0 0.04 0.999903 -5.60758 0.720125
157 1 11.2 0.2 0 0 0 0 10.8678 -18.3343 0 0.04 0.999903 -1.12147 -5.74712
255 1 10.8 0.4 0 0 0 0 -3.73775 17.7795 0 0.04 0.999903 -0.294584 4.479
256 1 11 0.4 0 0 0 0 -1.7144 -5.44694 0 0.04 0.999903 4.61535 4.54275
257 1 11.2 0.4 0 0 0 0 3.24821 35.4975 0 0.04 0.999903 0.784648 3.42684
58 1 11.4 0 0 0 0 0 25.5185 14.4545 0 0.04 0.999903 2.77825 0.940885
59 1 11.6 0 0 0 0 0 16.8195 -3.39652 0 0.04 0.999903 4.05416 8.57291
158 1 11.4 0.2 0 0 0 0 -41.8518 -16.2053 0 0.04 0.999903 -0.80698 1.75649
159 1 11.6 0.2 0 0 0 0 19.9949 3.11249 0 0.04 0.999903 3.50537 0.155481
258 1 11.4 0.4 0 0 0 0 21.9144 1.67949 0 0.04 0.999903 -5.86419 -7.89841
259 1 11.6 0.4 0 0 0 0 30.2936 -2.87668 0 0.04 0.999903 0.554204 4.91377
60 1 11.8 0 0 0 0 0 11.7884 -12.6693 0 0.04 0.999903 1.69219 2.4515
61 1 12 0 0 0 0 0 -7.96372 14.5027 0 0.04 0.999903 -1.33704 -1.5821
160 1 11.8 0.2 0 0 0 0 3.11311 -35.3197 0 0.04 0.999903 -3.52573 1.92102
161 1 12 0.2 0 0 0 0 -26.501 35.3831 0 0.04 0.999903 0.658804 -2.11349
260 1 11.8 0.4 0 0 0 0 11.2413 -4.16237 0 0.04 0.999903 0.458979 -2.0099
261 1 12 0.4 0 0 0 0 4.43895 -8.46952 0 0.04 0.999903 6.39705 -5.67059
62 1 12.2 0 0 0 0 0 -3.92239 -2.18211 0 0.04 0.999903 4.89321 -2.62073
63 1 12.4 0 0 0 0 0 -6.65418 -0.511333 0 0.04 0.999903 0.525884 7.08988
64 1 12.6 0 0 0 0 0 -2.33097 -27.4428 0 0.04 0.999903 3.44855 0.360394
162 1 12.2 0.2 0 0 0 0 -9.59437 -7.51838 0 0.04 0.999903 -5.91002 -5.25952
163 1 12.4 0.2 0 0 0 0 36.9296 -16.4086 0 0.04 0.999903 2.75155 0.951528
164 1 12.6 0.2 0 0 0 0 -37.2915 11.9916 0 0.04 0.999903 1.46351 -0.604677
262 1 12.2 0.4 0 0 0 0 2.09234 -0.424157 0 0.04 0.999903 4.83396 -2.16189
263 1 12.4 0.4 0 0 0 0 -15.2833 -4.78826 0 0.04 0.999903 0.10764 0.842939
264 1 12.6 0.4 0 0 0 0 15.1527 0.155678 0 0.04 0.999903 -3.06429 -1.6907
65 1 12.8 0 0 0 0 0 -11.2803 30.1077 0 0.04 0.999903 -1.45016 0.488945
66 1 13 0 0 0 0 0 -14.2195 -43.5969 0 0.04 0.999903 -3.19925 2.26916
165 1 12.8 0.2 0 0 0 0 11.284 27.1036 0 0.04 0.999903 2.36222 -2.94498
166 1 13 0.2 0 0 0 0 -45.9092 9.85046 0 0.04 0.999903 0.448859 -6.43244
265 1 12.8 0.4 0 0 0 0 -48.4785 35.1562 0 0.04 0.999903 -0.649828 -1.1152
266 1 13 0.4 0 0 0 0 9.46531 -14.9267 0 0.04 0.999903 -0.987879 -1.73992
67 1 13.2 0 0 0 0 0 1.01626 46.8736 0 0.04 0.999903 -1.79372 -1.03675
68 1 13.4 0 0 0 0 0 -22.6869 -7.9487 0 0.04 0.999903 -6.9276 6.47101
69 1 13.6 0 0 0 0 0 24.1865 -60.8394 0 0.04 0.999903 -3.99792 -1.15163
167 1 13.2 0.2 0 0 0 0 -2.158 13.347 0 0.04 0.999903 -0.571498 2.86592
168 1 13.4 0.2 0 0 0 0 -9.26878 -29.5085 0 0.04 0.999903 -6.64258 -4.64773
169 1 13.6 0.2 0 0 0 0 -15.9785 7.02322 0 0.04 0.999903 0.692683 1.39257
267 1 13.2 0.4 0 0 0 0 8.11991 -28.543 0 0.04 0.999903 -2.17078 3.83596
268 1 13.4 0.4 0 0 0 0 13.669 13.5611 0 0.04 0.999903 9.33481 5.07597
269 1 13.6 0.4 0 0 0 0 -16.4289 14.6715 0 0.04 0.999903 -0.926247 -0.920737
70 1 13.8 0 0 0 0 0 5.3131 23.4406 0 0.04 0.999903 -2.24772 -2.23368
71 1 14 0 0 0 0 0 -2.80304 -46.4985 0 0.04 0.999903 -0.484733 4.10163
170 1 13.8 0.2 0 0 0 0 -8.45678 -21.9888 0 0.04 0.999903 -6.85774 -2.88705
171 1 14 0.2 0 0 0 0 25.9126 40.2086 0 0.04 0.999903 -3.93466 -1.86146
270 1 13.8 0.4 0 0 0 0 7.25022 50.5676 0 0.04 0.999903 -1.07266 0.415848
271 1 14 0.4 0 0 0 0 3.16503 -11.484 0 0.04 0.999903 3.45313 -3.10821
72 1 14.2 0 0 0 0 0 1.47118 6.36071 0 0.04 0.999903 -1.32161 1.86232
73 1 14.4 0 0 0 0 0 -17.0907 -33.0958 0 0.04 0.999903 -0.921212 3.60236
74 1 14.6 0 0 0 0 0 25.8514 27.5627 0 0.04 0.999903 2.21125 0.54071
172 1 14.2 0.2 0 0 0 0 27.6187 9.05744 0 0.04 0.999903 -2.05788 -1.46613
173 1 14.4 0.2 0 0 0 0 1.30526 -11.7198 0 0.04 0.999903 -0.52918 0.544415
174 1 14.6 0.2 0 0 0 0 13.1424 40.0548 0 0.04 0.999903 -5.35676 7.35467
272 1 14.2 0.4 0 0 0 0 -22.9791 -7.66699 0 0.04 0.999903 -2.23449 -0.0172129
273 1 14.4 0.4 0 0 0 0 -34.8251 -2.65697 0 0.04 0.999903 2.75915 1.93617
274 1 14.6 0.4 0 0 0 0 30.7586 -23.9066 0 0.04 0.999903 -3.1917 0.445005
75 1 14.8 0 0 0 0 0 -13.7443 -10.5423 0 0.04 0.999903 -0.273969 -5.7931
76 1 15 0 0 0 0 0 -36.8333 -3.4421 0 0.04 0.999903 2.13556 3.06026
175 1 14.8 0.2 0 0 0 0 -4.19425 15.0442 0 0.04 0.999903 -0.87243 -2.76137
176 1 15 0.2 0 0 0 0 -1.22942 23.9857 0 0.04 0.999903 -2.04072 -5.60392
275 1 14.8 0.4 0 0 0 0 24.1749 -8.96993 0 0.04 0.999903 3.27545 0.432704
276 1 15 0.4 0 0 0 0 29.4494 -8.57373 0 0.04 0.999903 -3.06655 -1.05041
77 1 15.2 0 0 0 0 0 46.0081 4.44614 0 0.04 0.999903 1.24596 0.220651
78 1 15.4 0 0 0 0 0 10.3369 -4.90713 0 0.04 0.999903 -6.57081 0.551557
79 1 15.6 0 0 0 0 0 -29.9163 31.4648 0 0.04 0.999903 -2.04099 -2.62842
177 1 15.2 0.2 0 0 0 0 -30.158 39.3774 0 0.04 0.999903 0.654241 -2.68056
178 1 15.4 0.2 0 0 0 0 2.60216 -9.62341 0 0.04 0.999903 -0.989448 4.27139
179 1 15.6 0.2 0 0 0 0 5.90253 -8.62584 0 0.04 0.999903 -1.24674 -2.13604
277 1 15.2 0.4 0 0 0 0 -9.75661 -15.7951 0 0.04 0.999903 0.0948592 -1.98785
278 1 15.4 0.4 0 0 0 0 -15.137 12.4749 0 0.04 0.999903 -4.08987 -5.21237
279 1 15.6 0.4 0 0 0 0 15.4148 -11.6166 0 0.04 0.999903 3.09503 0.848165
80 1 15.8 0 0 0 0 0 23.3984 13.5989 0 0.04 0.999903 -4.70117 1.87193
81 1 16 0 0 0 0 0 15.7408 -27.3156 0 0.04 0.999903 -4.18601 -5.11936
180 1 15.8 0.2 0 0 0 0 18.6334 -49.5573 0 0.04 0.999903 1.03873 -0.222456
181 1 16 0.2 0 0 0 0 2.41821 -19.9192 0 0.04 0.999903 1.61917 1.83903
280 1 15.8 0.4 0 0 0 0 -3.64487 25.1805 0 0.04 0.999903 4.11864 -0.613479
281 1 16 0.4 0 0 0 0 -3.86109 55.5596 0 0.04 0.999903 3.83881 -4.3897
82 1 16.2 0 0 0 0 0 -13.4386 56.3103 0 0.04 0.999903 -3.48695 -3.51012
83 1 16.4 0 0 0 0 0 -32.6023 -6.34495 0 0.04 0.999903 0.102045 3.4497
182 1 16.2 0.2 0 0 0 0 6.96265 -2.3166 0 0.04 0.999903 4.20516 -3.06797
183 1 16.4 0.2 0 0 0 0 -19.0549 44.7978 0 0.04 0.999903 3.38408 -3.41982
282 1 16.2 0.4 0 0 0 0 -6.17519 -8.84111 0 0.04 0.999903 3.71822 4.225
283 1 16.4 0.4 0 0 0 0 2.62907 -53.8385 0 0.04 0.999903 2.40384 3.04061
84 1 16.6 0 0 0 0 0 -21.4211 -6.80072 0 0.04 0.999903 -4.97254 -3.16627
85 1 16.8 0 0 0 0 0 18.1683 43.0206 0 0.04 0.999903 2.85617 1.20141
86 1 17 0 0 0 0 0 -14.8881 15.4595 0 0.04 0.999903 3.11243 0.344271
184 1 16.6 0.2 0 0 0 0 23.7492 -7.07791 0 0.04 0.999903 4.08389 -0.0206257
185 1 16.8 0.2 0 0 0 0 5.09626 -21.0485 0 0.04 0.999903 -2.29013 -1.13345
186 1 17 0.2 0 0 0 0 -2.95828 -15.057 0 0.04 0.999903 4.78841 4.25538
284 1 16.6 0.4 0 0 0 0 -47.383 9.73375 0 0.04 0.999903 5.02698 -1.28858
285 1 16.8 0.4 0 0 0 0 -2.4056 6.72177 0 0.04 0.999903 -4.74885 2.43222
286 1 17 0.4 0 0 0 0 -14.3681 11.7306 0 0.04 0.999903 4.21308 5.66736
87 1 17.2 0 0 0 0 0 -14.2165 -12.6528 0 0.04 0.999903 4.85624 2.70759
88 1 17.4 0 0 0 0 0 22.1852 33.3415 0 0.04 0.999903 -7.01008 -5.3591
187 1 17.2 0.2 0 0 0 0 -26.4609 -12.6644 0 0.04 0.999903 -3.03408 -1.25777
188 1 17.4 0.2 0 0 0 0 -1.10188 -6.89474 0 0.04 0.999903 -0.364951 -5.06521
287 1 17.2 0.4 0 0 0 0 -29.001 46.4985 0 0.04 0.999903 -0.431014 0.776568
288 1 17.4 0.4 0 0 0 0 32.5236 -15.7343 0 0.04 0.999903 -0.891146 -1.81119
89 1 17.6 0 0 0 0 0 -29.5225 -25.2251 0 0.04 0.999903 -1.08197 -6.62714
90 1 17.8 0 0 0 0 0 -12.3557 46.2591 0 0.04 0.999903 3.08175 0.259332
91 1 18 0 0 0 0 0 40.8867 -23.6704 0 0.04 0.999903 1.01482 1.97303
189 1 17.6 0.2 0 0 0 0 -10.2425 -4.79217 0 0.04 0.999903 3.28559 4.12355
190 1 17.8 0.2 0 0 0 0 40.9694 3.27334 0 0.04 0.999903 -2.3527 -0.962564
191 1 18 0.2 0 0 0 0 -5.13084 37.8625 0 0.04 0.999903 3.57211 -1.92952
289 1 17.6 0.4 0 0 0 0 -4.36729 17.6977 0 0.04 0.999903 0.996685 -1.61231
290 1 17.8 0.4 0 0 0 0 28.4802 3.06244 0 0.04 0.999903 0.779037 -3.29613
291 1 18 0.4 0 0 0 0 -31.2408 -20.6093 0 0.04 0.999903 4.82229 9.5089
92 1 18.2 0 0 0 0 0 5.60562 -3.6085 0 0.04 0.999903 3.43901 -0.19581
93 1 18.4 0 0 0 0 0 -15.098 20.9447 0 0.04 0.999903 3.12332 5.0516
192 1 18.2 0.2 0 0 0 0 -7.5461 21.7212 0 0.04 0.999903 3.21289 -0.13809
193 1 18.4 0.2 0 0 0 0 10.8354 46.1576 0 0.04 0.999903 5.446 6.88054
292 1 18.2 0.4 0 0 0 0 30.135 -23.4712 0 0.04 0.999903 -5.89224 1.89227
293 1 18.4 0.4 0 0 0 0 46.9482 -7.48215 0 0.04 0.999903 3.6856 2.53187
94 1 18.6 0 0 0 0 0 -10.372 1.35987 0 0.04 0.999903 -0.876002 -2.50339
95 1 18.8 0 0 0 0 0 11.5427 28.6262 0 0.04 0.999903 1.65193 -4.65159
96 1 19 0 0 0 0 0 22.0465 -18.3825 0 0.04 0.999903 0.683393 -1.40888
194 1 18.6 0.2 0 0 0 0 -33.0317 6.90962 0 0.04 0.999903 0.877602 -3.26728
195 1 18.8 0.2 0 0 0 0 -29.2007 30.7187 0 0.04 0.999903 -3.06878 2.9955
196 1 19 0.2 0 0 0 0 12.3269 25.7132 0 0.04 0.999903 0.0814436 2.41014
294 1 18.6 0.4 0 0 0 0 11.1885 -20.5773 0 0.04 0.999903 2.21501 -1.75523
295 1 18.8 0.4 0 0 0 0 -12.9316 8.33363 0 0.04 0.999903 -2.16183 2.52177
296 1 19 0.4 0 0 0 0 -41.6077 -44.6436 0 0.04 0.999903 -1.29543 0.0132851
97 1 19.2 0 0 0 0 0 18.8665 -48.797 0 0.04 0.999903 -2.63819 -7.12549
98 1 19.4 0 0 0 0 0 -38.8596 -0.0449361 0 0.04 0.999903 2.41667 0.432315
197 1 19.2 0.2 0 0 0 0 9.55493 -10.6219 0 0.04 0.999903 -2.92167 -4.25158
198 1 19.4 0.2 0 0 0 0 6.96136 18.7214 0 0.04 0.999903 -1.42759 -5.05971
297 1 19.2 0.4 0 0 0 0 38.7794 -37.5818 0 0.04 0.999903 0.632135 0.80937
298 1 19.4 0.4 0 0 0 0 22.8445 38.9097 0 0.04 0.999903 -2.89349 2.33893
99 1 19.6 0 0 0 0 0 7.95604 -37.9668 0 0.04 0.999903 2.152 -4.81669
100 1 19.8 0 0 0 0 0 -5.74892 -2.98269 0 0.04 0.999903 2.84884 5.35801
199 1 19.6 0.2 0 0 0 0 3.68956 19.7446 0 0.04 0.999903 2.3066 -2.27307
200 1 19.8 0.2 0 0 0 0 -13.8369 14.2448 0 0.04 0.999903 2.91198 1.15375
299 1 19.6 0.4 0 0 0 0 14.245 20.3108 0 0.04 0.999903 3.97757 4.07064
300 1 19.8 0.4 0 0 0 0 28.3146 29.0341 0 0.04 0.999903 -6.32517 1.47784
301 1 0 0.6 0 0 0 0 -25.6273 -24.3866 0 0.04 0.999903 1.64334 -3.09529
302 1 0.2 0.6 0 0 0 0 -5.24158 -11.9952 0 0.04 0.999903 -6.67144 -2.06919
303 1 0.4 0.6 0 0 0 0 15.787 11.4463 0 0.04 0.999903 -0.487971 -3.03293
401 1 0 0.8 0 0 0 0 31.8486 6.76871 0 0.04 0.999903 -2.77929 -9.62763
402 1 0.2 0.8 0 0 0 0 25.8779 -18.9762 0 0.04 0.999903 3.11836 -3.65065
403 1 0.4 0.8 0 0 0 0 -23.1282 37.5645 0 0.04 0.999903 2.04856 -0.672764
304 1 0.6 0.6 0 0 0 0 -12.7135 -2.75074 0 0.04 0.999903 5.00786 2.99897
305 1 0.8 0.6 0 0 0 0 -29.8714 -3.16512 0 0.04 0.999903 0.485675 -2.54521
404 1 0.6 0.8 0 0 0 0 6.76908 18.6627 0 0.04 0.999903 -4.74888 -6.33863
405 1 0.8 0.8 0 0 0 0 -29.4598 -8.33722 0 0.04 0.999903 -1.68567 0.853759
306 1 1 0.6 0 0 0 0 11.7504 13.5194 0 0.04 0.999903 -5.5381 -3.42171
307 1 1.2 0.6 0 0 0 0 21.1766 -34.7219 0 0.04 0.999903 -1.93784 -5.00626
308 1 1.4 0.6 0 0 0 0 -9.80564 -50.1851 0 0.04 0.999903 -1.60776 -0.484078
406 1 1 0.8 0 0 0 0 15.3499 51.3712 0 0.04 0.999903 -1.8882 0.45349
407 1 1.2 0.8 0 0 0 0 8.66538 56.759 0 0.04 0.999903 -4.87584 -2.1181
408 1 1.4 0.8 0 0 0 0 8.96645 20.0982 0 0.04 0.999903 0.028615 -1.76288
309 1 1.6 0.6 0 0 0 0 24.1978 3.37266 0 0.04 0.999903 0.514558 0.533463
310 1 1.8 0.6 0 0 0 0 22.5255 -4.79213 0 0.04 0.999903 1.55809 -0.383495
409 1 1.6 0.8 0 0 0 0 -24.1569 -7.1466 0 0.04 0.999903 0.0973534 0.847567
410 1 1.8 0.8 0 0 0 0 -21.0909 -1.65827 0 0.04 0.999903 -4.06637 5.2651
311 1 2 0.6 0 0 0 0 -34.6605 24.3006 0 0.04 0.999903 2.10231 0.89211
312 1 2.2 0.6 0 0 0 0 33.5197 0.546036 0 0.04 0.999903 0.456894 6.59852
313 1 2.4 0.6 0 0 0 0 -36.7833 30.8229 0 0.04 0.999903 -4.89411 -1.69495
411 1 2 0.8 0 0 0 0 31.8135 -22.4872 0 0.04 0.999903 -0.787142 -2.62305
412 1 2.2 0.8 0 0 0 0 9.03987 -10.2795 0 0.04 0.999903 -2.26154 0.496392
413 1 2.4 0.8 0 0 0 0 -14.8679 -32.6114 0 0.04 0.999903 0.587208 2.04371
314 1 2.6 0.6 0 0 0 0 9.98309 -19.0934 0 0.04 0.999903 -6.13121 1.28811
315 1 2.8 0.6 0 0 0 0 39.0564 53.8103 0 0.04 0.999903 -3.97633 6.77746
414 1 2.6 0.8 0 0 0 0 -7.30572 16.4173 0 0.04 0.999903 -7.81774 -1.84863
415 1 2.8 0.8 0 0 0 0 -15.3932 -6.21111 0 0.04 0.999903 -3.85354 -4.26341
316 1 3 0.6 0 0 0 0 16.653 -8.58034 0 0.04 0.999903 -2.86838 4.01241
317 1 3.2 0.6 0 0 0 0 -23.9429 -6.74807 0 0.04 0.999903 0.622876 -7.91519
318 1 3.4 0.6 0 0 0 0 7.38255 -9.75388 0 0.04 0.999903 -0.570836 -0.034448
416 1 3 0.8 0 0 0 0 -8.62554 24.1462 0 0.04 0.999903 2.65658 6.49279
417 1 3.2 0.8 0 0 0 0 -2.34881 4.59105 0 0.04 0.999903 -4.40961 -12.5215
418 1 3.4 0.8 0 0 0 0 18.1828 5.5653 0 0.04 0.999903 -0.777302 -6.77348
319 1 3.6 0.6 0 0 0 0 -45.4129 13.1553 0 0.04 0.999903 1.3337 1.06281
320 1 3.8 0.6 0 0 0 0 2.03367 0.921603 0 0.04 0.999903 -5.49986 3.85441
419 1 3.6 0.8 0 0 0 0 -19.1421 -1.93948 0 0.04 0.999903 -4.33895 -1.17051
420 1 3.8 0.8 0 0 0 0 -14.9009 -15.1641 0 0.04 0.999903 3.46168 -4.73203
321 1 4 0.6 0 0 0 0 33.72 1.09204 0 0.04 0.999903 -2.46108 -5.12758
322 1 4.2 0.6 0 0 0 0 -7.50333 -16.7992 0 0.04 0.999903 1.44044 -2.68877
421 1 4 0.8 0 0 0 0 -7.00686 11.338 0 0.04 0.999903 2.37565 1.82369
422 1 4.2 0.8 0 0 0 0 10.4467 -14.2396 0 0.04 0.999903 -3.53825 -4.94735
323 1 4.4 0.6 0 0 0 0 -5.53656 -22.9514 0 0.04 0.999903 6.35387 -4.21462
324 1 4.6 0.6 0 0 0 0 3.52679 5.65114 0 0.04 0.999903 -0.396067 0.0213268
325 1 4.8 0.6 0 0 0 0 29.9292 21.0193 0 0.04 0.999903 6.69631 -0.755228
423 1 4.4 0.8 0 0 0 0 25.6041 -0.456571 0 0.04 0.999903 -3.71682 -4.95119
424 1 4.6 0.8 0 0 0 0 -8.8035 10.8851 0 0.04 0.999903 1.74023 10.276
425 1 4.8 0.8 0 0 0 0 -25.2913 2.22363 0 0.04 0.999903 2.69633 7.58682
326 1 5 0.6 0 0 0 0 2.86429 -26.7713 0 0.04 0.999903 -0.607496 -0.874139
327 1 5.2 0.6 0 0 0 0 -10.0919 2.60579 0 0.04 0.999903 2.86229 4.79919
426 1 5 0.8 0 0 0 0 51.6731 -16.9889 0 0.04 0.999903 -6.89352 -5.36575
427 1 5.2 0.8 0 0 0 0 -23.6737 -30.4284 0 0.04 0.999903 4.62505 -1.25204
328 1 5.4 0.6 0 0 0 0 -23.3126 -1.35962 0 0.04 0.999903 -0.591674 2.64078
329 1 5.6 0.6 0 0 0 0 -0.289979 -24.8816 0 0.04 0.999903 2.47552 1.02033
330 1 5.8 0.6 0 0 0 0 6.39063 -21.4854 0 0.04 0.999903 4.61606 -3.65051
428 1 5.4 0.8 0 0 0 0 44.8496 10.133 0 0.04 0.999903 -5.97135 -2.17486
429 1 5.6 0.8 0 0 0 0 4.94754 26.5387 0 0.04 0.999903 2.24767 -3.4522
430 1 5.8 0.8 0 0 0 0 -8.10547 -2.86706 0 0.04 0.999903 -7.15614 3.61508
331 1 6 0.6 0 0 0 0 -8.43121 -6.75925 0 0.04 0.999903 -2.78293 -0.574852
332 1 6.2 0.6 0 0 0 0 15.1773 3.6841 0 0.04 0.999903 -2.41897 3.30076
431 1 6 0.8 0 0 0 0 17.1575 0.730482 0 0.04 0.999903 0.467042 2.21226
432 1 6.2 0.8 0 0 0 0 8.3036 24.4802 0 0.04 0.999903 2.3995 -0.433175
333 1 6.4 0.6 0 0 0 0 35.5745 31.422 0 0.04 0.999903 5.25595 -2.05974
334 1 6.6 0.6 0 0 0 0 -18.0643 45.3477 0 0.04 0.999903 2.04879 4.77248
335 1 6.8 0.6 0 0 0 0 -6.8994 -31.897 0 0.04 0.999903 3.39932 4.68141
433 1 6.4 0.8 0 0 0 0 -20.7959 20.4107 0 0.04 0.999903 0.695487 2.17481
434 1 6.6 0.8 0 0 0 0 -12.8124 -14.2509 0 0.04 0.999903 -1.43419 -2.36996
435 1 6.8 0.8 0 0 0 0 -3.85534 -2.42661 0 0.04 0.999903 -0.898596 2.41634
336 1 7 0.6 0 0 0 0 13.8376 -33.525 0 0.04 0.999903 0.876933 0.152149
337 1 7.2 0.6 0 0 0 0 -22.4047 -1.65249 0 0.04 0.999903 0.857408 3.84903
436 1 7 0.8 0 0 0 0 -16.9589 -40.1426 0 0.04 0.999903 -5.06473 -0.156306
437 1 7.2 0.8 0 0 0 0 2.33041 -18.712 0 0.04 0.999903 2.03941 0.446712
338 1 7.4 0.6 0 0 0 0 27.8904 32.324 0 0.04 0.999903 -4.08736 -5.49414
339 1 7.6 0.6 0 0 0 0 -11.131 -15.5301 0 0.04 0.999903 -2.41386 -1.18088
340 1 7.8 0.6 0 0 0 0 -6.70733 -45.6078 0 0.04 0.999903 -1.01058 -1.64379
438 1 7.4 0.8 0 0 0 0 19.7772 -10.3081 0 0.04 0.999903 -0.43102 -3.32604
439 1 7.6 0.8 0 0 0 0 -40.2256 -2.00055 0 0.04 0.999903 1.04888 -2.10062
440 1 7.8 0.8 0 0 0 0 -40.2727 -19.8503 0 0.04 0.999903 1.7521 -0.37374
341 1 8 0.6 0 0 0 0 10.4437 -0.530859 0 0.04 0.999903 -0.89515 -5.15795
342 1 8.2 0.6 0 0 0 0 5.96505 -11.4676 0 0.04 0.999903 7.11047 4.29387
441 1 8 0.8 0 0 0 0 27.3722 -6.71593 0 0.04 0.999903 -7.97936 -4.53291
442 1 8.2 0.8 0 0 0 0 -2.52379 -26.865 0 0.04 0.999903 4.20804 -1.07146
343 1 8.4 0.6 0 0 0 0 -8.76588 11.0676 0 0.04 0.999903 -3.08292 -0.252567
344 1 8.6 0.6 0 0 0 0 -19.4851 -22.6983 0 0.04 0.999903 1.1612 5.21312
443 1 8.4 0.8 0 0 0 0 20.6988 10.5974 0 0.04 0.999903 0.731895 -6.81743
444 1 8.6 0.8 0 0 0 0 -7.08815 -1.31266 0 0.04 0.999903 3.09278 -0.356014
345 1 8.8 0.6 0 0 0 0 -14.4222 -24.9857 0 0.04 0.999903 1.30219 1.35798
346 1 9 0.6 0 0 0 0 -30.2075 24.0873 0 0.04 0.999903 1.40244 0.846799
347 1 9.2 0.6 0 0 0 0 38.7103 27.9872 0 0.04 0.999903 1.66878 -0.20902
445 1 8.8 0.8 0 0 0 0 12.1881 -15.639 0 0.04 0.999903 2.87248 1.86936
446 1 9 0.8 0 0 0 0 -15.4995 -6.3335 0 0.04 0.999903 -3.41559 -1.37301
447 1 9.2 0.8 0 0 0 0 7.87875 -45.1856 0 0.04 0.999903 1.83884 2.75193
348 1 9.4 0.6 0 0 0 0 28.4514 -22.5431 0 0.04 0.999903 2.23333 -0.768122
349 1 9.6 0.6 0 0 0 0 -36.9195 1.07614 0 0.04 0.999903 -1.36878 -2.05706
448 1 9.4 0.8 0 0 0 0 22.7772 15.5924 0 0.04 0.999903 -2.70408 1.22019
449 1 9.6 0.8 0 0 0 0 -13.1939 17.9925 0 0.04 0.999903 4.5164 -2.67728
350 1 9.8 0.6 0 0 0 0 35.9339 26.3619 0 0.04 0.999903 -1.04761 3.15311
351 1 10 0.6 0 0 0 0 -7.83558 -20.2341 0 0.04 0.999903 5.48147 5.59346
352 1 10.2 0.6 0 0 0 0 -13.1257 -11.0691 0 0.04 0.999903 3.22725 4.73598
450 1 9.8 0.8 0 0 0 0 20.3867 -17.7063 0 0.04 0.999903 2.52098 4.79965
451 1 10 0.8 0 0 0 0 19.4018 -16.281 0 0.04 0.999903 6.53447 -0.653142
452 1 10.2 0.8 0 0 0 0 -1.22173 4.5603 0 0.04 0.999903 -2.83561 1.45373
353 1 10.4 0.6 0 0 0 0 2.0577 -16.3667 0 0.04 0.999903 5.90785 3.95966
354 1 10.6 0.6 0 0 0 0 -3.69406 -8.52947 0 0.04 0.999903 11.5041 1.03519
453 1 10.4 0.8 0 0 0 0 -0.525926 -15.6172 0 0.04 0.999903 -1.06466 -2.94724
454 1 10.6 0.8 0 0 0 0 -3.42028 -2.22742 0 0.04 0.999903 -0.0104786 -5.31963
355 1 10.8 0.6 0 0 0 0 2.80753 -17.8637 0 0.04 0.999903 4.25017 1.83949
356 1 11 0.6 0 0 0 0 -26.9637 -6.10955 0 0.04 0.999903 2.38468 6.12211
357 1 11.2 0.6 0 0 0 0 -4.99702 -23.1273 0 0.04 0.999903 0.562986 1.25662
455 1 10.8 0.8 0 0 0 0 -1.81522 -25.696 0 0.04 0.999903 -3.09824 8.49947
456 1 11 0.8 0 0 0 0 -17.8584 13.5754 0 0.04 0.999903 4.02524 2.37632
457 1 11.2 0.8 0 0 0 0 3.29677 19.2057 0 0.04 0.999903 0.743958 4.52155
358 1 11.4 0.6 0 0 0 0 21.4523 29.2588 0 0.04 0.999903 0.73461 -1.46829
359 1 11.6 0.6 0 0 0 0 -15.693 1.04193 0 0.04 0.999903 -1.65867 -1.74644