ITEM: TIMESTEP
0
ITEM: NUMBER OF ATOMS
2880
ITEM: BOX BOUNDS pp pp pp
0.0000000000000000e+00 9.6000000000000014e+00
0.0000000000000000e+00 1.2000000000000000e+01
0.0000000000000000e+00 2.0000000000000001e-01
ITEM: ATOMS id type x y z vx vy vz fx fy fz mass c_density c_peratom[1] c_peratom[2] c_peratom[3] c_peratom[4]
1 2 0 0 0 0 0 0 0.00958128 1.06229e-05 0 0.04 0.999903 9.77618e-05 9.53912e-05 -0 -1.03228e-06
2 2 0.2 0 0 0 0 0 0.00959001 -1.02846e-05 0 0.04 0.999903 9.64629e-05 9.50846e-05 -0 -8.74363e-07
3 2 0.4 0 0 0 0 0 0.00958856 -4.21707e-06 0 0.04 0.999903 9.64079e-05 9.60358e-05 -0 2.04147e-06
49 2 0 0.2 0 0 0 0 0.00960288 -1.38467e-05 0 0.04 0.999903 9.76915e-05 9.40172e-05 -0 1.71741e-06
50 2 0.2 0.2 0 0 0 0 0.00959133 -2.67294e-06 0 0.04 0.999903 9.62083e-05 9.93812e-05 -0 -6.36285e-07
51 2 0.4 0.2 0 0 0 0 0.00960953 -6.02399e-06 0 0.04 0.999903 9.46622e-05 9.94434e-05 -0 4.64839e-07
97 2 0 0.4 0 0 0 0 0.00960079 2.51139e-05 0 0.04 0.999903 9.70731e-05 9.45417e-05 -0 -1.03568e-06
98 2 0.2 0.4 0 0 0 0 0.0095849 6.17871e-06 0 0.04 0.999903 9.39239e-05 9.38378e-05 -0 -3.19508e-07
99 2 0.4 0.4 0 0 0 0 0.00958877 1.18688e-05 0 0.04 0.999903 9.87392e-05 9.7122e-05 -0 -2.05063e-06
4 2 0.6 0 0 0 0 0 0.00960705 -1.10997e-05 0 0.04 0.999903 9.73737e-05 9.94035e-05 -0 8.0549e-07
5 2 0.8 0 0 0 0 0 0.00960813 -3.69489e-06 0 0.04 0.999903 9.87029e-05 9.84775e-05 -0 1.43291e-06
52 2 0.6 0.2 0 0 0 0 0.00961267 2.18773e-05 0 0.04 0.999903 9.18535e-05 9.8945e-05 -0 -7.50338e-07
53 2 0.8 0.2 0 0 0 0 0.00959643 2.46802e-06 0 0.04 0.999903 9.33525e-05 9.79151e-05 -0 9.13438e-08
100 2 0.6 0.4 0 0 0 0 0.00960577 -1.87836e-05 0 0.04 0.999903 9.63938e-05 9.83891e-05 -0 -1.18018e-06
101 2 0.8 0.4 0 0 0 0 0.00961665 8.77132e-06 0 0.04 0.999903 0.000102878 9.60673e-05 -0 1.76334e-06
6 2 1 0 0 0 0 0 0.00961269 3.34946e-06 0 0.04 0.999903 9.793e-05 9.44619e-05 -0 -8.33683e-07
7 2 1.2 0 0 0 0 0 0.0095787 -2.61162e-06 0 0.04 0.999903 9.34342e-05 9.59344e-05 -0 -2.26353e-06
8 2 1.4 0 0 0 0 0 0.00958445 -1.66727e-05 0 0.04 0.999903 9.53563e-05 0.000101277 -0 1.34061e-06
54 2 1 0.2 0 0 0 0 0.0095896 5.01768e-06 0 0.04 0.999903 9.59673e-05 9.87056e-05 -0 6.46138e-07
55 2 1.2 0.2 0 0 0 0 0.00959871 1.43837e-05 0 0.04 0.999903 9.94892e-05 9.56513e-05 -0 2.99906e-06
56 2 1.4 0.2 0 0 0 0 0.00960199 -1.08726e-05 0 0.04 0.999903 9.30717e-05 9.35129e-05 -0 -6.41448e-07
102 2 1 0.4 0 0 0 0 0.00960692 7.78566e-06 0 0.04 0.999903 9.73401e-05 9.84329e-05 -0 2.64128e-06
103 2 1.2 0.4 0 0 0 0 0.00959455 -1.28909e-05 0 0.04 0.999903 9.32754e-05 9.68747e-05 -0 -5.98177e-07
104 2 1.4 0.4 0 0 0 0 0.00961079 5.24669e-06 0 0.04 0.999903 9.87622e-05 9.69142e-05 -0 -2.32745e-06
9 2 1.6 0 0 0 0 0 0.00958468 -6.35809e-06 0 0.04 0.999903 0.000100516 9.82164e-05 -0 -3.87636e-07
10 2 1.8 0 0 0 0 0 0.00959818 2.57484e-06 0 0.04 0.999903 9.22905e-05 9.49178e-05 -0 8.743e-07
57 2 1.6 0.2 0 0 0 0 0.00961598 -6.63024e-06 0 0.04 0.999903 9.60312e-05 9.83001e-05 -0 -1.65292e-06
58 2 1.8 0.2 0 0 0 0 0.00959611 6.41509e-06 0 0.04 0.999903 9.66703e-05 9.73863e-05 -0 -1.31032e-06
105 2 1.6 0.4 0 0 0 0 0.00959047 -6.32455e-06 0 0.04 0.999903 9.59391e-05 9.69447e-05 -0 -1.44349e-06
106 2 1.8 0.4 0 0 0 0 0.00961555 7.48095e-06 0 0.04 0.999903 9.86711e-05 9.83759e-05 -0 -4.78941e-07
11 2 2 0 0 0 0 0 0.00960923 1.7954e-05 0 0.04 0.999903 9.5709e-05 0.000101855 -0 -1.122e-07
12 2 2.2 0 0 0 0 0 0.00961934 -2.12206e-06 0 0.04 0.999903 9.74385e-05 9.69773e-05 -0 1.44523e-06
59 2 2 0.2 0 0 0 0 0.00959897 -3.89825e-06 0 0.04 0.999903 9.97729e-05 9.76397e-05 -0 -5.75439e-07
60 2 2.2 0.2 0 0 0 0 0.00962037 -1.40734e-05 0 0.04 0.999903 9.15735e-05 9.64618e-05 -0 1.55312e-06
107 2 2 0.4 0 0 0 0 0.00955146 1.50178e-05 0 0.04 0.999903 9.68501e-05 9.92673e-05 -0 7.78615e-07
108 2 2.2 0.4 0 0 0 0 0.00958123 6.04958e-07 0 0.04 0.999903 9.98718e-05 9.76505e-05 -0 5.55045e-08
13 2 2.4 0 0 0 0 0 0.00960952 -1.31241e-06 0 0.04 0.999903 9.71141e-05 9.45848e-05 -0 -3.66258e-07
14 2 2.6 0 0 0 0 0 0.00958519 -1.77009e-06 0 0.04 0.999903 0.00010343 9.93463e-05 -0 1.81928e-06
15 2 2.8 0 0 0 0 0 0.00959444 2.35365e-05 0 0.04 0.999903 9.71383e-05 9.77443e-05 -0 -2.48656e-06
61 2 2.4 0.2 0 0 0 0 0.0095874 -1.15997e-05 0 0.04 0.999903 9.96735e-05 9.45227e-05 -0 1.24399e-06
62 2 2.6 0.2 0 0 0 0 0.0095899 6.3997e-06 0 0.04 0.999903 9.68742e-05 9.73721e-05 -0 -1.25548e-06
63 2 2.8 0.2 0 0 0 0 0.00961402 -2.27924e-05 0 0.04 0.999903 9.64286e-05 9.55006e-05 -0 -8.32047e-07
109 2 2.4 0.4 0 0 0 0 0.00960008 1.71863e-07 0 0.04 0.999903 9.39532e-05 9.75849e-05 -0 -3.31099e-06
110 2 2.6 0.4 0 0 0 0 0.00963231 -3.61701e-06 0 0.04 0.999903 0.000101606 9.65786e-05 -0 -1.11228e-06
111 2 2.8 0.4 0 0 0 0 0.00960302 -3.36659e-06 0 0.04 0.999903 9.93398e-05 9.79849e-05 -0 -2.25234e-06
16 2 3 0 0 0 0 0 0.00960142 3.30029e-05 0 0.04 0.999903 9.59402e-05 9.53642e-05 -0 -9.68682e-07
17 2 3.2 0 0 0 0 0 0.00959921 -7.51509e-06 0 0.04 0.999903 9.63752e-05 9.45836e-05 -0 -4.21335e-07
64 2 3 0.2 0 0 0 0 0.00956316 -3.2818e-05 0 0.04 0.999903 9.79376e-05 9.43376e-05 -0 -3.68609e-07
65 2 3.2 0.2 0 0 0 0 0.0096 -2.11545e-06 0 0.04 0.999903 9.86998e-05 9.72716e-05 -0 -1.65958e-06
112 2 3 0.4 0 0 0 0 0.00958746 1.6399e-05 0 0.04 0.999903 0.00010067 9.71441e-05 -0 -1.75418e-06
113 2 3.2 0.4 0 0 0 0 0.00959357 7.13383e-06 0 0.04 0.999903 9.48504e-05 9.37733e-05 -0 -3.2014e-08
18 2 3.4 0 0 0 0 0 0.00960473 2.76217e-06 0 0.04 0.999903 9.61936e-05 9.41569e-05 -0 5.79655e-07
19 2 3.6 0 0 0 0 0 0.00959291 -8.85847e-06 0 0.04 0.999903 0.000101126 9.73161e-05 -0 1.2676e-06
20 2 3.8 0 0 0 0 0 0.00961903 -4.79899e-05 0 0.04 0.999903 0.000101111 9.85305e-05 -0 -1.42228e-06
66 2 3.4 0.2 0 0 0 0 0.00958146 2.51917e-06 0 0.04 0.999903 9.99155e-05 9.82314e-05 -0 -1.1756e-06
67 2 3.6 0.2 0 0 0 0 0.0096046 1.31163e-05 0 0.04 0.999903 9.80936e-05 9.82858e-05 -0 -7.48082e-07
68 2 3.8 0.2 0 0 0 0 0.00960884 -1.05412e-06 0 0.04 0.999903 9.4653e-05 9.63078e-05 -0 -1.19774e-06
114 2 3.4 0.4 0 0 0 0 0.00960629 2.32146e-05 0 0.04 0.999903 9.56663e-05 9.63455e-05 -0 -1.10021e-06
115 2 3.6 0.4 0 0 0 0 0.00958257 2.74652e-05 0 0.04 0.999903 9.64199e-05 9.79342e-05 -0 -3.42801e-06
116 2 3.8 0.4 0 0 0 0 0.00960621 5.78675e-06 0 0.04 0.999903 9.76145e-05 9.42556e-05 -0 1.27571e-06
21 2 4 0 0 0 0 0 0.00958506 -3.22523e-05 0 0.04 0.999903 9.89944e-05 9.45092e-05 -0 -1.22188e-06
22 2 4.2 0 0 0 0 0 0.00958019 9.00422e-06 0 0.04 0.999903 9.80289e-05 9.63462e-05 -0 -2.90303e-06
69 2 4 0.2 0 0 0 0 0.00959665 -8.35182e-06 0 0.04 0.999903 9.49458e-05 9.67935e-05 -0 1.32927e-06
70 2 4.2 0.2 0 0 0 0 0.00961811 -1.57995e-05 0 0.04 0.999903 9.57653e-05 9.58818e-05 -0 6.60804e-07
117 2 4 0.4 0 0 0 0 0.00959359 2.59042e-05 0 0.04 0.999903 0.000100111 9.56617e-05 -0 -2.77864e-06
118 2 4.2 0.4 0 0 0 0 0.00959805 -4.10382e-06 0 0.04 0.999903 0.000100713 9.13246e-05 -0 -1.72372e-06
23 2 4.4 0 0 0 0 0 0.00957701 -1.39325e-06 0 0.04 0.999903 9.46099e-05 9.33356e-05 -0 -1.55158e-06
24 2 4.6 0 0 0 0 0 0.00961548 3.04733e-05 0 0.04 0.999903 9.53828e-05 9.70649e-05 -0 -5.04077e-07
71 2 4.4 0.2 0 0 0 0 0.00959114 2.71709e-06 0 0.04 0.999903 9.63665e-05 9.45534e-05 -0 -3.61551e-07
72 2 4.6 0.2 0 0 0 0 0.00959801 1.62917e-05 0 0.04 0.999903 9.957e-05 9.98955e-05 -0 -1.99097e-06
119 2 4.4 0.4 0 0 0 0 0.00957985 3.33582e-05 0 0.04 0.999903 0.00010075 0.000100409 -0 -2.30818e-06
120 2 4.6 0.4 0 0 0 0 0.00958294 -1.62427e-05 0 0.04 0.999903 9.59351e-05 9.7969e-05 -0 -1.65772e-06
25 2 4.8 0 0 0 0 0 0.00959664 -6.22997e-06 0 0.04 0.999903 9.37032e-05 9.52513e-05 -0 -1.56745e-07
26 2 5 0 0 0 0 0 0.00960079 -1.61812e-05 0 0.04 0.999903 9.46913e-05 9.70418e-05 -0 -1.52482e-06
27 2 5.2 0 0 0 0 0 0.00961106 2.46734e-05 0 0.04 0.999903 9.81149e-05 9.39901e-05 -0 -1.89576e-06
73 2 4.8 0.2 0 0 0 0 0.00960624 -6.92844e-06 0 0.04 0.999903 9.68853e-05 9.98944e-05 -0 -1.16996e-06
74 2 5 0.2 0 0 0 0 0.00958956 5.02133e-06 0 0.04 0.999903 9.38469e-05 9.9324e-05 -0 2.13142e-06
75 2 5.2 0.2 0 0 0 0 0.00961183 -1.14659e-05 0 0.04 0.999903 9.55647e-05 9.39686e-05 -0 1.30378e-06
121 2 4.8 0.4 0 0 0 0 0.00960792 -5.49081e-06 0 0.04 0.999903 9.57828e-05 9.89291e-05 -0 1.09944e-06
122 2 5 0.4 0 0 0 0 0.00958474 -1.47034e-05 0 0.04 0.999903 9.67009e-05 9.6905e-05 -0 -1.0189e-06
123 2 5.2 0.4 0 0 0 0 0.00958191 9.91202e-06 0 0.04 0.999903 9.58897e-05 9.41803e-05 -0 -7.50061e-07
28 2 5.4 0 0 0 0 0 0.00958743 5.84573e-06 0 0.04 0.999903 9.11119e-05 9.85706e-05 -0 -8.49626e-07
29 2 5.6 0 0 0 0 0 0.00960797 -7.98325e-07 0 0.04 0.999903 9.07892e-05 0.000101299 -0 1.19516e-06
76 2 5.4 0.2 0 0 0 0 0.00960237 1.15171e-05 0 0.04 0.999903 9.52783e-05 9.53508e-05 -0 7.64054e-07
77 2 5.6 0.2 0 0 0 0 0.00960071 6.36958e-06 0 0.04 0.999903 9.72789e-05 9.51452e-05 -0 9.13049e-07
124 2 5.4 0.4 0 0 0 0 0.00961513 1.03923e-05 0 0.04 0.999903 9.3102e-05 9.58777e-05 -0 -2.73039e-07
125 2 5.6 0.4 0 0 0 0 0.00961964 -8.72102e-06 0 0.04 0.999903 9.95116e-05 9.83145e-05 -0 -9.70018e-07
30 2 5.8 0 0 0 0 0 0.00960344 -2.98775e-05 0 0.04 0.999903 9.50519e-05 9.33701e-05 -0 -9.31051e-07
31 2 6 0 0 0 0 0 0.00959352 -2.45877e-05 0 0.04 0.999903 9.28749e-05 9.42691e-05 -0 -6.68369e-07
32 2 6.2 0 0 0 0 0 0.0096329 1.25522e-06 0 0.04 0.999903 9.60934e-05 9.93403e-05 -0 -3.28458e-07
78 2 5.8 0.2 0 0 0 0 0.00957371 -2.62988e-06 0 0.04 0.999903 9.31576e-05 9.15386e-05 -0 -6.99239e-07
79 2 6 0.2 0 0 0 0 0.00961789 2.61345e-05 0 0.04 0.999903 9.40284e-05 9.59851e-05 -0 -1.52236e-06
80 2 6.2 0.2 0 0 0 0 0.00960278 9.44472e-06 0 0.04 0.999903 9.52284e-05 9.4108e-05 -0 2.43481e-06
126 2 5.8 0.4 0 0 0 0 0.00959405 -1.30371e-05 0 0.04 0.999903 9.93367e-05 9.66593e-05 -0 9.1477e-07
127 2 6 0.4 0 0 0 0 0.00961874 -1.99244e-05 0 0.04 0.999903 9.32822e-05 9.61968e-05 -0 1.80246e-06
128 2 6.2 0.4 0 0 0 0 0.00959816 -3.25429e-06 0 0.04 0.999903 9.92914e-05 9.59211e-05 -0 6.69302e-07
33 2 6.4 0 0 0 0 0 0.00961466 -2.25179e-05 0 0.04 0.999903 9.49607e-05 9.93045e-05 -0 -6.02128e-07
34 2 6.6 0 0 0 0 0 0.00960685 -1.48043e-05 0 0.04 0.999903 9.47201e-05 9.43391e-05 -0 -3.55715e-07
81 2 6.4 0.2 0 0 0 0 0.00960045 3.51565e-05 0 0.04 0.999903 9.80586e-05 9.92706e-05 -0 -4.105e-08
82 2 6.6 0.2 0 0 0 0 0.00958201 -6.13987e-06 0 0.04 0.999903 0.000100611 9.81562e-05 -0 1.2325e-06
129 2 6.4 0.4 0 0 0 0 0.00960509 -1.0229e-05 0 0.04 0.999903 9.47521e-05 9.86768e-05 -0 -1.00191e-06
130 2 6.6 0.4 0 0 0 0 0.00960554 -2.50626e-06 0 0.04 0.999903 9.39824e-05 9.90371e-05 -0 4.89635e-07
35 2 6.8 0 0 0 0 0 0.00962701 5.72654e-06 0 0.04 0.999903 0.000100903 9.70728e-05 -0 -5.19355e-07
36 2 7 0 0 0 0 0 0.00959931 1.6307e-05 0 0.04 0.999903 9.76523e-05 9.8439e-05 -0 3.5829e-07
37 2 7.2 0 0 0 0 0 0.00956657 3.62428e-05 0 0.04 0.999903 0.000100483 9.68232e-05 -0 2.66901e-06
83 2 6.8 0.2 0 0 0 0 0.00959795 -2.58355e-05 0 0.04 0.999903 9.84639e-05 9.28592e-05 -0 -6.47655e-07
84 2 7 0.2 0 0 0 0 0.00962086 -2.31462e-05 0 0.04 0.999903 9.56675e-05 9.71275e-05 -0 -1.74852e-06
85 2 7.2 0.2 0 0 0 0 0.00957311 1.88592e-05 0 0.04 0.999903 0.000100506 9.57144e-05 -0 6.484e-07
131 2 6.8 0.4 0 0 0 0 0.00960714 1.36631e-05 0 0.04 0.999903 9.63241e-05 9.56716e-05 -0 -1.45616e-06
132 2 7 0.4 0 0 0 0 0.0096217 7.92117e-06 0 0.04 0.999903 9.88074e-05 9.66897e-05 -0 8.49669e-07
133 2 7.2 0.4 0 0 0 0 0.00960698 3.82279e-06 0 0.04 0.999903 9.80379e-05 9.87807e-05 -0 3.05647e-07
38 2 7.4 0 0 0 0 0 0.00964152 -2.87902e-05 0 0.04 0.999903 9.86561e-05 9.23105e-05 -0 -6.27201e-07
39 2 7.6 0 0 0 0 0 0.00960109 -5.84909e-06 0 0.04 0.999903 9.86475e-05 9.78444e-05 -0 -1.71553e-06
86 2 7.4 0.2 0 0 0 0 0.00960161 1.01095e-05 0 0.04 0.999903 9.90801e-05 9.11122e-05 -0 7.2621e-07
87 2 7.6 0.2 0 0 0 0 0.00960393 7.65023e-06 0 0.04 0.999903 9.62164e-05 9.84812e-05 -0 -2.07816e-06
134 2 7.4 0.4 0 0 0 0 0.00962328 -1.50136e-05 0 0.04 0.999903 9.73805e-05 9.85643e-05 -0 9.4069e-07
135 2 7.6 0.4 0 0 0 0 0.0096129 1.64297e-06 0 0.04 0.999903 9.68339e-05 9.3743e-05 -0 1.32266e-06
40 2 7.8 0 0 0 0 0 0.00960442 -2.56109e-07 0 0.04 0.999903 0.000100607 9.57729e-05 -0 2.69756e-07
41 2 8 0 0 0 0 0 0.00960594 4.14063e-06 0 0.04 0.999903 0.000100293 9.80842e-05 -0 -1.25482e-07
88 2 7.8 0.2 0 0 0 0 0.00959279 7.51419e-06 0 0.04 0.999903 9.89545e-05 9.98503e-05 -0 2.15409e-06
89 2 8 0.2 0 0 0 0 0.00957246 1.05572e-06 0 0.04 0.999903 9.55793e-05 9.50134e-05 -0 6.12301e-07
136 2 7.8 0.4 0 0 0 0 0.00957472 1.36497e-05 0 0.04 0.999903 9.90381e-05 0.000100231 -0 -3.75493e-07
137 2 8 0.4 0 0 0 0 0.00961014 -5.25275e-06 0 0.04 0.999903 9.73482e-05 9.81407e-05 -0 -1.27994e-06
42 2 8.2 0 0 0 0 0 0.0095963 1.36445e-05 0 0.04 0.999903 0.00010011 9.81013e-05 -0 1.35437e-06
43 2 8.4 0 0 0 0 0 0.00960113 2.88092e-05 0 0.04 0.999903 9.74944e-05 0.000100155 -0 -4.62756e-07
44 2 8.6 0 0 0 0 0 0.00960712 8.9737e-06 0 0.04 0.999903 9.8919e-05 0.000101628 -0 1.77895e-06
90 2 8.2 0.2 0 0 0 0 0.00958724 8.83185e-06 0 0.04 0.999903 9.56935e-05 9.78585e-05 -0 -1.70071e-06
91 2 8.4 0.2 0 0 0 0 0.00958025 -6.49969e-06 0 0.04 0.999903 9.3081e-05 9.61719e-05 -0 1.00418e-06
92 2 8.6 0.2 0 0 0 0 0.00962905 -7.96952e-06 0 0.04 0.999903 9.79422e-05 0.000101322 -0 2.31742e-07
138 2 8.2 0.4 0 0 0 0 0.00959995 1.13877e-05 0 0.04 0.999903 9.77751e-05 9.56373e-05 -0 2.1039e-07
139 2 8.4 0.4 0 0 0 0 0.0095913 -1.41366e-05 0 0.04 0.999903 9.59415e-05 9.70428e-05 -0 -1.44068e-06
140 2 8.6 0.4 0 0 0 0 0.00961251 2.0075e-06 0 0.04 0.999903 0.000101321 0.000100414 -0 -4.56938e-07
45 2 8.8 0 0 0 0 0 0.00962571 -4.64059e-06 0 0.04 0.999903 0.000100744 9.81176e-05 -0 1.8986e-06
46 2 9 0 0 0 0 0 0.00958701 1.20881e-05 0 0.04 0.999903 9.9003e-05 9.52523e-05 -0 -1.39599e-06
93 2 8.8 0.2 0 0 0 0 0.00960762 2.90474e-06 0 0.04 0.999903 9.71306e-05 9.41095e-05 -0 5.48067e-07
94 2 9 0.2 0 0 0 0 0.0095771 9.44535e-06 0 0.04 0.999903 0.000101777 9.9389e-05 -0 3.45364e-06
141 2 8.8 0.4 0 0 0 0 0.00960873 -3.76062e-06 0 0.04 0.999903 9.81044e-05 0.000101744 -0 -2.83405e-06
142 2 9 0.4 0 0 0 0 0.00960275 -2.06627e-05 0 0.04 0.999903 0.000100792 9.79866e-05 -0 -1.03425e-06
47 2 9.2 0 0 0 0 0 0.00957224 2.44345e-06 0 0.04 0.999903 9.8304e-05 9.74758e-05 -0 -1.72587e-06
48 2 9.4 0 0 0 0 0 0.00960708 3.84345e-06 0 0.04 0.999903 9.78776e-05 9.75641e-05 -0 1.5792e-07
95 2 9.2 0.2 0 0 0 0 0.00963065 -6.77384e-06 0 0.04 0.999903 0.000101886 9.81351e-05 -0 -1.64613e-06
96 2 9.4 0.2 0 0 0 0 0.00959279 1.33045e-05 0 0.04 0.999903 9.97914e-05 9.71978e-05 -0 -2.85097e-06
143 2 9.2 0.4 0 0 0 0 0.00956541 1.09236e-05 0 0.04 0.999903 9.58893e-05 9.62284e-05 -0 1.56141e-06
144 2 9.4 0.4 0 0 0 0 0.00960553 5.47212e-06 0 0.04 0.999903 9.47455e-05 9.92488e-05 -0 1.8983e-06
145 2 0 0.6 0 0 0 0 0.00960802 -3.10705e-06 0 0.04 0.999903 9.8933e-05 9.38313e-05 -0 -2.32843e-07
146 2 0.2 0.6 0 0 0 0 0.00960111 -1.42056e-05 0 0.04 0.999903 9.92785e-05 9.66834e-05 -0 5.57599e-07
147 2 0.4 0.6 0 0 0 0 0.00960102 8.03955e-07 0 0.04 0.999903 9.73675e-05 9.82723e-05 -0 3.79993e-08
193 2 0 0.8 0 0 0 0 0.00958038 1.00606e-05 0 0.04 0.999903 9.68995e-05 9.48803e-05 -0 -1.61259e-06
194 2 0.2 0.8 0 0 0 0 0.00957736 -9.83755e-06 0 0.04 0.999903 9.76696e-05 9.76794e-05 -0 -4.72257e-07
195 2 0.4 0.8 0 0 0 0 0.00960512 -2.65028e-05 0 0.04 0.999903 9.75395e-05 9.97554e-05 -0 -8.44637e-07
148 2 0.6 0.6 0 0 0 0 0.00961433 -4.22925e-06 0 0.04 0.999903 9.34861e-05 9.66604e-05 -0 -2.86018e-06
149 2 0.8 0.6 0 0 0 0 0.00960996 1.82404e-05 0 0.04 0.999903 9.83202e-05 9.81625e-05 -0 9.1186e-07
196 2 0.6 0.8 0 0 0 0 0.00957174 3.92693e-06 0 0.04 0.999903 9.6395e-05 9.5535e-05 -0 -7.58615e-07
197 2 0.8 0.8 0 0 0 0 0.00961829 1.15477e-05 0 0.04 0.999903 9.84764e-05 9.73067e-05 -0 1.68604e-06
150 2 1 0.6 0 0 0 0 0.00958468 -1.62117e-05 0 0.04 0.999903 0.000104334 0.000101234 -0 2.83584e-06
151 2 1.2 0.6 0 0 0 0 0.00958293 -9.02295e-06 0 0.04 0.999903 9.51645e-05 9.71635e-05 -0 -2.61172e-06
152 2 1.4 0.6 0 0 0 0 0.00957114 -2.39611e-07 0 0.04 0.999903 9.88384e-05 0.000101409 -0 -2.93743e-07
198 2 1 0.8 0 0 0 0 0.00958711 -1.40666e-05 0 0.04 0.999903 9.67261e-05 0.000101775 -0 -2.75176e-06
199 2 1.2 0.8 0 0 0 0 0.00958477 -1.50051e-06 0 0.04 0.999903 9.64486e-05 9.65141e-05 -0 -1.01082e-06
200 2 1.4 0.8 0 0 0 0 0.00961104 -1.19464e-05 0 0.04 0.999903 9.89386e-05 9.66717e-05 -0 2.1923e-06
153 2 1.6 0.6 0 0 0 0 0.00959452 -6.03346e-06 0 0.04 0.999903 9.8998e-05 9.48828e-05 -0 -1.41613e-06
154 2 1.8 0.6 0 0 0 0 0.00961977 -1.46097e-05 0 0.04 0.999903 9.48615e-05 0.000100387 -0 -9.81657e-07
201 2 1.6 0.8 0 0 0 0 0.00962642 2.76904e-05 0 0.04 0.999903 9.4627e-05 9.42057e-05 -0 -2.38188e-06
202 2 1.8 0.8 0 0 0 0 0.00958005 -2.66083e-05 0 0.04 0.999903 9.38288e-05 9.02406e-05 -0 -2.10284e-06
155 2 2 0.6 0 0 0 0 0.00962058 -8.30521e-06 0 0.04 0.999903 9.51822e-05 9.40178e-05 -0 1.15976e-06
156 2 2.2 0.6 0 0 0 0 0.00962196 3.76072e-06 0 0.04 0.999903 9.68292e-05 9.90966e-05 -0 2.10576e-06
203 2 2 0.8 0 0 0 0 0.00959331 -1.42537e-05 0 0.04 0.999903 9.65894e-05 9.35332e-05 -0 -1.30928e-06
204 2 2.2 0.8 0 0 0 0 0.00959853 -2.15721e-05 0 0.04 0.999903 9.34623e-05 9.45618e-05 -0 -6.8396e-07
157 2 2.4 0.6 0 0 0 0 0.00959195 -1.26477e-05 0 0.04 0.999903 9.76783e-05 9.89689e-05 -0 -4.77791e-07
158 2 2.6 0.6 0 0 0 0 0.00960429 -2.42592e-06 0 0.04 0.999903 9.95879e-05 9.84848e-05 -0 -2.25783e-06
159 2 2.8 0.6 0 0 0 0 0.00963809 2.08515e-05 0 0.04 0.999903 9.59887e-05 9.57155e-05 -0 -1.66921e-07
205 2 2.4 0.8 0 0 0 0 0.00959573 -8.71013e-06 0 0.04 0.999903 9.62681e-05 9.54599e-05 -0 9.07294e-07
206 2 2.6 0.8 0 0 0 0 0.00959884 -1.99993e-05 0 0.04 0.999903 9.73346e-05 9.97621e-05 -0 -1.93485e-07
207 2 2.8 0.8 0 0 0 0 0.00959899 1.06018e-05 0 0.04 0.999903 9.58749e-05 0.00010045 -0 -3.6584e-07
160 2 3 0.6 0 0 0 0 0.00958694 3.46601e-06 0 0.04 0.999903 9.93605e-05 9.68921e-05 -0 -1.18678e-06
161 2 3.2 0.6 0 0 0 0 0.0095869 -2.92796e-06 0 0.04 0.999903 9.69678e-05 9.89173e-05 -0 -1.80872e-06
208 2 3 0.8 0 0 0 0 0.00959753 -4.27797e-06 0 0.04 0.999903 9.57375e-05 9.36868e-05 -0 -5.28815e-09
209 2 3.2 0.8 0 0 0 0 0.00958775 -1.42333e-05 0 0.04 0.999903 9.82936e-05 9.63363e-05 -0 1.00351e-06
162 2 3.4 0.6 0 0 0 0 0.00963448 5.07863e-06 0 0.04 0.999903 9.68726e-05 0.000100415 -0 8.43954e-07
163 2 3.6 0.6 0 0 0 0 0.00960217 -3.17557e-06 0 0.04 0.999903 9.23213e-05 9.57163e-05 -0 -2.65441e-07
164 2 3.8 0.6 0 0 0 0 0.00959212 -2.77126e-05 0 0.04 0.999903 9.74932e-05 9.96406e-05 -0 3.96052e-07
210 2 3.4 0.8 0 0 0 0 0.00959921 -5.55122e-06 0 0.04 0.999903 9.81811e-05 9.99058e-05 -0 -1.01706e-06
211 2 3.6 0.8 0 0 0 0 0.00959104 -1.88881e-05 0 0.04 0.999903 0.000100985 9.8494e-05 -0 3.33621e-07
212 2 3.8 0.8 0 0 0 0 0.00961981 -6.1018e-06 0 0.04 0.999903 9.51537e-05 9.42856e-05 -0 -1.69904e-07
165 2 4 0.6 0 0 0 0 0.0096143 -9.09642e-06 0 0.04 0.999903 9.67654e-05 9.83042e-05 -0 3.34882e-07
166 2 4.2 0.6 0 0 0 0 0.00963749 -2.07402e-05 0 0.04 0.999903 9.91852e-05 9.64737e-05 -0 -2.42131e-06
213 2 4 0.8 0 0 0 0 0.00959883 2.40788e-06 0 0.04 0.999903 0.000101494 9.52046e-05 -0 -3.58136e-07
214 2 4.2 0.8 0 0 0 0 0.00959253 2.39126e-05 0 0.04 0.999903 9.64843e-05 9.67295e-05 -0 -1.74887e-06
167 2 4.4 0.6 0 0 0 0 0.00959228 -7.38315e-06 0 0.04 0.999903 9.40862e-05 9.80488e-05 -0 8.02794e-07
168 2 4.6 0.6 0 0 0 0 0.00958851 -8.00571e-06 0 0.04 0.999903 9.94348e-05 9.57733e-05 -0 -4.87359e-06
215 2 4.4 0.8 0 0 0 0 0.00961077 -2.34332e-05 0 0.04 0.999903 0.000101249 9.73064e-05 -0 -1.49704e-06
216 2 4.6 0.8 0 0 0 0 0.0095758 -1.36183e-05 0 0.04 0.999903 9.61356e-05 9.37768e-05 -0 -6.38173e-07
169 2 4.8 0.6 0 0 0 0 0.00961118 8.03438e-06 0 0.04 0.999903 0.00010117 9.90418e-05 -0 1.308e-06
170 2 5 0.6 0 0 0 0 0.00958494 9.41569e-06 0 0.04 0.999903 9.92906e-05 9.89192e-05 -0 1.24446e-06
171 2 5.2 0.6 0 0 0 0 0.00961943 -2.18322e-05 0 0.04 0.999903 9.34169e-05 9.47169e-05 -0 -1.43573e-07
217 2 4.8 0.8 0 0 0 0 0.00962202 1.44063e-05 0 0.04 0.999903 9.96194e-05 9.51776e-05 -0 -2.30089e-06
218 2 5 0.8 0 0 0 0 0.0096083 6.33971e-06 0 0.04 0.999903 9.7306e-05 9.51502e-05 -0 1.93543e-06
219 2 5.2 0.8 0 0 0 0 0.0096014 3.29633e-05 0 0.04 0.999903 0.000101763 9.72572e-05 -0 5.7031e-07
172 2 5.4 0.6 0 0 0 0 0.0096049 2.27959e-05 0 0.04 0.999903 9.73483e-05 0.000103487 -0 -1.29254e-07
173 2 5.6 0.6 0 0 0 0 0.00960261 1.27752e-05 0 0.04 0.999903 9.88202e-05 9.78932e-05 -0 1.09256e-06
220 2 5.4 0.8 0 0 0 0 0.00958844 -2.30958e-05 0 0.04 0.999903 0.000100126 9.64272e-05 -0 1.07413e-06
221 2 5.6 0.8 0 0 0 0 0.00959377 -5.58122e-06 0 0.04 0.999903 0.000100549 9.39486e-05 -0 -1.08483e-07
174 2 5.8 0.6 0 0 0 0 0.00959451 1.34094e-05 0 0.04 0.999903 9.71084e-05 9.31372e-05 -0 2.83858e-06
175 2 6 0.6 0 0 0 0 0.00959755 3.39398e-05 0 0.04 0.999903 9.90088e-05 9.5203e-05 -0 -5.40866e-07
176 2 6.2 0.6 0 0 0 0 0.00960839 1.38128e-05 0 0.04 0.999903 9.98846e-05 0.000103141 -0 -4.78676e-07
222 2 5.8 0.8 0 0 0 0 0.00958857 3.81481e-06 0 0.04 0.999903 9.67564e-05 9.24822e-05 -0 1.45514e-06
223 2 6 0.8 0 0 0 0 0.00958973 -3.18594e-05 0 0.04 0.999903 0.000100488 9.85443e-05 -0 3.56446e-08
224 2 6.2 0.8 0 0 0 0 0.00959094 -2.14486e-05 0 0.04 0.999903 9.75956e-05 9.39266e-05 -0 4.12215e-07
177 2 6.4 0.6 0 0 0 0 0.00960365 8.62301e-07 0 0.04 0.999903 9.81689e-05 9.85254e-05 -0 7.80719e-07
178 2 6.6 0.6 0 0 0 0 0.00958573 -8.83682e-06 0 0.04 0.999903 9.76923e-05 9.68856e-05 -0 1.60837e-06
225 2 6.4 0.8 0 0 0 0 0.00959673 -1.3202e-05 0 0.04 0.999903 9.80967e-05 9.43316e-05 -0 2.68655e-07
226 2 6.6 0.8 0 0 0 0 0.00960852 2.0349e-05 0 0.04 0.999903 0.000101757 0.000100516 -0 -4.77352e-08
179 2 6.8 0.6 0 0 0 0 0.00957723 2.32311e-05 0 0.04 0.999903 9.72633e-05 0.00010008 -0 -7.54983e-07
180 2 7 0.6 0 0 0 0 0.0095963 1.55985e-06 0 0.04 0.999903 9.76186e-05 9.9835e-05 -0 -3.70854e-07
181 2 7.2 0.6 0 0 0 0 0.00959046 3.79405e-07 0 0.04 0.999903 9.68611e-05 9.39386e-05 -0 2.35252e-06
227 2 6.8 0.8 0 0 0 0 0.00960005 8.2693e-06 0 0.04 0.999903 9.71443e-05 9.71748e-05 -0 1.83955e-07
228 2 7 0.8 0 0 0 0 0.00960155 -2.82007e-06 0 0.04 0.999903 9.48664e-05 9.44244e-05 -0 -1.51745e-06
229 2 7.2 0.8 0 0 0 0 0.00960975 4.21666e-06 0 0.04 0.999903 9.3375e-05 9.24769e-05 -0 -1.85602e-06
182 2 7.4 0.6 0 0 0 0 0.009605 1.81241e-05 0 0.04 0.999903 9.7144e-05 0.000100496 -0 3.40259e-06
183 2 7.6 0.6 0 0 0 0 0.00960369 3.95844e-06 0 0.04 0.999903 0.00010043 0.000101211 -0 -5.67645e-07
230 2 7.4 0.8 0 0 0 0 0.00959136 -3.16247e-08 0 0.04 0.999903 9.76719e-05 9.72369e-05 -0 -1.2006e-06
231 2 7.6 0.8 0 0 0 0 0.00961163 -2.18766e-05 0 0.04 0.999903 9.93362e-05 9.90118e-05 -0 5.28901e-07
184 2 7.8 0.6 0 0 0 0 0.00957286 -1.3081e-05 0 0.04 0.999903 9.77918e-05 9.82716e-05 -0 -1.01025e-06
185 2 8 0.6 0 0 0 0 0.00960318 -7.52956e-06 0 0.04 0.999903 9.72472e-05 9.90025e-05 -0 3.52685e-07
232 2 7.8 0.8 0 0 0 0 0.00960263 -8.8331e-06 0 0.04 0.999903 9.54604e-05 9.71502e-05 -0 1.73104e-06
233 2 8 0.8 0 0 0 0 0.00958234 -6.40721e-06 0 0.04 0.999903 9.8421e-05 9.67979e-05 -0 1.41243e-06
186 2 8.2 0.6 0 0 0 0 0.00961547 1.13902e-05 0 0.04 0.999903 9.52389e-05 0.00010035 -0 1.88506e-07
187 2 8.4 0.6 0 0 0 0 0.00962151 -3.90446e-05 0 0.04 0.999903 9.32847e-05 9.60821e-05 -0 -7.64671e-08
188 2 8.6 0.6 0 0 0 0 0.0096016 -3.1877e-05 0 0.04 0.999903 9.26163e-05 9.33532e-05 -0 -1.82501e-06
234 2 8.2 0.8 0 0 0 0 0.00961754 1.42058e-05 0 0.04 0.999903 9.43944e-05 0.000100101 -0 2.67979e-07
235 2 8.4 0.8 0 0 0 0 0.00958753 1.42581e-05 0 0.04 0.999903 0.000101174 9.67745e-05 -0 -6.22435e-07
236 2 8.6 0.8 0 0 0 0 0.00960671 9.42486e-07 0 0.04 0.999903 9.7784e-05 9.25901e-05 -0 5.50312e-07
189 2 8.8 0.6 0 0 0 0 0.00958505 -1.68862e-05 0 0.04 0.999903 9.32844e-05 9.8883e-05 -0 1.26829e-06
190 2 9 0.6 0 0 0 0 0.00961248 -1.58759e-06 0 0.04 0.999903 0.000100573 0.000101939 -0 -9.23111e-08
237 2 8.8 0.8 0 0 0 0 0.00962329 -9.63977e-06 0 0.04 0.999903 9.51512e-05 9.40384e-05 -0 2.95254e-07
238 2 9 0.8 0 0 0 0 0.00960916 2.47096e-05 0 0.04 0.999903 9.50084e-05 9.20727e-05 -0 -6.24154e-07
191 2 9.2 0.6 0 0 0 0 0.00960766 -2.30045e-05 0 0.04 0.999903 9.81526e-05 9.9631e-05 -0 2.89521e-07
192 2 9.4 0.6 0 0 0 0 0.00960226 -2.91657e-06 0 0.04 0.999903 9.92193e-05 9.55909e-05 -0 2.56027e-06
239 2 9.2 0.8 0 0 0 0 0.00958022 1.92408e-05 0 0.04 0.999903 9.40632e-05 9.67694e-05 -0 -2.37476e-07
240 2 9.4 0.8 0 0 0 0 0.00960019 -2.95078e-05 0 0.04 0.999903 9.51916e-05 9.66111e-05 -0 -5.90847e-08
241 2 0 1 0 0 0 0 0.00964368 -2.71571e-06 0 0.04 0.999903 9.08306e-05 9.47187e-05 -0 -1.58294e-06
242 2 0.2 1 0 0 0 0 0.00960825 -2.31902e-06 0 0.04 0.999903 9.61954e-05 9.67532e-05 -0 -9.79563e-07
243 2 0.4 1 0 0 0 0 0.00958588 1.57565e-05 0 0.04 0.999903 9.7415e-05 9.83426e-05 -0 -2.78368e-06
289 1 0 1.2 0 0 0 0 0.00958741 7.95728e-07 0 0.04 0.999903 9.78627e-05 9.82687e-05 -0 -5.20425e-08
290 1 0.2 1.2 0 0 0 0 0.00964065 1.68672e-05 0 0.04 0.999903 9.98738e-05 9.90163e-05 -0 -1.01549e-06
291 1 0.4 1.2 0 0 0 0 0.00959103 2.5201e-06 0 0.04 0.999903 9.57889e-05 9.06201e-05 -0 1.3004e-06
337 1 0 1.4 0 0 0 0 0.00962873 -8.18434e-06 0 0.04 0.999903 9.53817e-05 9.77944e-05 -0 -5.92878e-07
338 1 0.2 1.4 0 0 0 0 0.00960612 -3.34655e-05 0 0.04 0.999903 9.33502e-05 9.30264e-05 -0 2.90155e-06
339 1 0.4 1.4 0 0 0 0 0.00960847 3.58524e-06 0 0.04 0.999903 9.55831e-05 9.94367e-05 -0 3.70743e-07
244 2 0.6 1 0 0 0 0 0.00961865 2.78019e-05 0 0.04 0.999903 9.69295e-05 9.78299e-05 -0 -4.45022e-07
245 2 0.8 1 0 0 0 0 0.00962072 -2.06006e-06 0 0.04 0.999903 9.82017e-05 9.49301e-05 -0 -1.08113e-06
292 1 0.6 1.2 0 0 0 0 0.00962064 -2.85203e-06 0 0.04 0.999903 9.92176e-05 9.88266e-05 -0 7.67396e-07
293 1 0.8 1.2 0 0 0 0 0.00961331 4.50422e-06 0 0.04 0.999903 9.96432e-05 0.000100398 -0 1.3693e-06
340 1 0.6 1.4 0 0 0 0 0.00959352 -2.10067e-05 0 0.04 0.999903 9.15253e-05 9.68053e-05 -0 1.6147e-06
341 1 0.8 1.4 0 0 0 0 0.00961873 -1.85531e-05 0 0.04 0.999903 9.55211e-05 9.67917e-05 -0 2.54151e-06
246 2 1 1 0 0 0 0 0.00960723 6.03693e-06 0 0.04 0.999903 9.6947e-05 9.7908e-05 -0 -7.14996e-07
247 2 1.2 1 0 0 0 0 0.00958615 7.43587e-06 0 0.04 0.999903 9.99501e-05 9.81149e-05 -0 1.69271e-06
248 2 1.4 1 0 0 0 0 0.00960828 -1.29481e-05 0 0.04 0.999903 9.73171e-05 0.000102048 -0 -1.91094e-06
294 1 1 1.2 0 0 0 0 0.00959462 -9.289e-06 0 0.04 0.999903 9.83954e-05 9.85344e-05 -0 3.02168e-07
295 1 1.2 1.2 0 0 0 0 0.00958752 1.79649e-05 0 0.04 0.999903 0.00010016 9.94692e-05 -0 -3.05589e-07
296 1 1.4 1.2 0 0 0 0 0.0095918 1.27917e-05 0 0.04 0.999903 9.94773e-05 9.85113e-05 -0 -3.40022e-07
342 1 1 1.4 0 0 0 0 0.00959682 -2.00254e-05 0 0.04 0.999903 9.26511e-05 9.46901e-05 -0 -1.73994e-06
343 1 1.2 1.4 0 0 0 0 0.00962877 -2.40684e-05 0 0.04 0.999903 9.50718e-05 9.66073e-05 -0 1.53019e-06
344 1 1.4 1.4 0 0 0 0 0.0095937 6.68233e-06 0 0.04 0.999903 9.49373e-05 0.000103055 -0 -1.23897e-06
249 2 1.6 1 0 0 0 0 0.00959444 8.3186e-08 0 0.04 0.999903 9.61972e-05 9.34832e-05 -0 -2.42901e-07
250 2 1.8 1 0 0 0 0 0.00956588 9.41342e-06 0 0.04 0.999903 9.80898e-05 9.89044e-05 -0 1.1735e-06
297 1 1.6 1.2 0 0 0 0 0.00960704 1.01111e-05 0 0.04 0.999903 9.93126e-05 9.21512e-05 -0 -2.57243e-06
298 1 1.8 1.2 0 0 0 0 0.00961586 2.78531e-05 0 0.04 0.999903 9.62837e-05 9.5173e-05 -0 8.11649e-07
345 1 1.6 1.4 0 0 0 0 0.00958784 -2.71555e-06 0 0.04 0.999903 0.000100841 9.58519e-05 -0 -1.13263e-06
346 1 1.8 1.4 0 0 0 0 0.00958986 8.24022e-07 0 0.04 0.999903 9.63144e-05 0.000100861 -0 -7.84502e-07
251 2 2 1 0 0 0 0 0.00961095 2.92802e-05 0 0.04 0.999903 9.47726e-05 9.39538e-05 -0 -1.83293e-06
252 2 2.2 1 0 0 0 0 0.00960276 1.15224e-05 0 0.04 0.999903 9.53514e-05 9.83218e-05 -0 2.85629e-07
299 1 2 1.2 0 0 0 0 0.00959784 -5.78483e-06 0 0.04 0.999903 9.42114e-05 9.49898e-05 -0 -5.90545e-07
300 1 2.2 1.2 0 0 0 0 0.00958791 -5.53189e-06 0 0.04 0.999903 9.85305e-05 9.84641e-05 -0 8.12747e-08
347 1 2 1.4 0 0 0 0 0.00960365 -6.7572e-06 0 0.04 0.999903 9.48773e-05 9.55324e-05 -0 -8.44093e-07
348 1 2.2 1.4 0 0 0 0 0.00961557 1.69067e-05 0 0.04 0.999903 9.78491e-05 9.49039e-05 -0 -1.64785e-06
253 2 2.4 1 0 0 0 0 0.00959211 2.08464e-05 0 0.04 0.999903 9.71187e-05 9.92096e-05 -0 3.29603e-07
254 2 2.6 1 0 0 0 0 0.00961806 1.46729e-05 0 0.04 0.999903 9.791e-05 9.73287e-05 -0 -5.88632e-07
255 2 2.8 1 0 0 0 0 0.0096397 1.90871e-05 0 0.04 0.999903 0.000100313 0.000101963 -0 3.00364e-07
301 1 2.4 1.2 0 0 0 0 0.00961065 1.6931e-06 0 0.04 0.999903 9.78865e-05 9.66611e-05 -0 -1.81048e-07
302 1 2.6 1.2 0 0 0 0 0.00961794 -1.87786e-05 0 0.04 0.999903 9.67922e-05 9.78086e-05 -0 -6.06104e-07
303 1 2.8 1.2 0 0 0 0 0.00957122 -6.95752e-06 0 0.04 0.999903 9.48951e-05 0.000100813 -0 1.8386e-07
349 1 2.4 1.4 0 0 0 0 0.00959941 6.06835e-06 0 0.04 0.999903 9.73511e-05 9.57135e-05 -0 2.91794e-06
350 1 2.6 1.4 0 0 0 0 0.00959061 3.72312e-06 0 0.04 0.999903 9.10677e-05 9.6264e-05 -0 -1.00303e-06
351 1 2.8 1.4 0 0 0 0 0.00957883 -3.45774e-05 0 0.04 0.999903 9.96615e-05 0.000101015 -0 -1.68855e-06
256 2 3 1 0 0 0 0 0.00958472 5.54768e-06 0 0.04 0.999903 9.27985e-05 9.28595e-05 -0 4.87337e-07
257 2 3.2 1 0 0 0 0 0.00958349 1.68419e-05 0 0.04 0.999903 9.84241e-05 9.60812e-05 -0 -3.16931e-06
304 1 3 1.2 0 0 0 0 0.00958508 5.07402e-06 0 0.04 0.999903 9.82678e-05 0.000100853 -0 -7.02829e-07
305 1 3.2 1.2 0 0 0 0 0.00959767 1.15309e-05 0 0.04 0.999903 9.51023e-05 9.67094e-05 -0 -1.28785e-06
352 1 3 1.4 0 0 0 0 0.00960504 3.02954e-06 0 0.04 0.999903 9.87152e-05 0.000102677 -0 -2.33601e-06
353 1 3.2 1.4 0 0 0 0 0.00961177 -1.04402e-05 0 0.04 0.999903 9.60211e-05 9.88354e-05 -0 1.60293e-06
258 2 3.4 1 0 0 0 0 0.00959765 -2.19943e-05 0 0.04 0.999903 9.56775e-05 9.71841e-05 -0 5.4108e-07
259 2 3.6 1 0 0 0 0 0.00961242 4.23183e-06 0 0.04 0.999903 9.49034e-05 9.86855e-05 -0 6.29951e-08
260 2 3.8 1 0 0 0 0 0.0096163 1.29683e-06 0 0.04 0.999903 9.44727e-05 9.35726e-05 -0 8.77213e-08
306 1 3.4 1.2 0 0 0 0 0.00960464 3.54583e-05 0 0.04 0.999903 9.602e-05 9.56619e-05 -0 -1.42307e-06
307 1 3.6 1.2 0 0 0 0 0.0095882 1.1124e-05 0 0.04 0.999903 9.58033e-05 9.61311e-05 -0 3.95813e-07
308 1 3.8 1.2 0 0 0 0 0.00960363 -1.32291e-05 0 0.04 0.999903 9.68764e-05 9.72929e-05 -0 1.31498e-06
354 1 3.4 1.4 0 0 0 0 0.00959593 -1.23133e-05 0 0.04 0.999903 9.12228e-05 9.46876e-05 -0 -2.71207e-06